
     Program PWSCF v.7.2 starts on 24Jul2025 at  6:49:33 

     This program is part of the open-source Quantum ESPRESSO suite
     for quantum simulation of materials; please cite
         "P. Giannozzi et al., J. Phys.:Condens. Matter 21 395502 (2009);
         "P. Giannozzi et al., J. Phys.:Condens. Matter 29 465901 (2017);
         "P. Giannozzi et al., J. Chem. Phys. 152 154105 (2020);
          URL http://www.quantum-espresso.org", 
     in publications or presentations arising from this work. More details at
     http://www.quantum-espresso.org/quote

     Parallel version (MPI & OpenMP), running on     128 processor cores
     Number of MPI processes:               128
     Threads/MPI process:                     1

     MPI processes distributed on     2 nodes
     240894 MiB available memory on the printing compute node when the environment starts

     Reading input from Ag_mp-10597_100.in

     Current dimensions of program PWSCF are:
     Max number of different atomic species (ntypx) = 10
     Max number of k-points (npk) =  40000
     Max angular momentum in pseudopotentials (lmaxx) =  4
     Message from routine iosys:
     restart disabled: needed files not found

     K-points division:     npool     =       4
     R & G space division:  proc/nbgrp/npool/nimage =      32
     Subspace diagonalization in iterative solution of the eigenvalue problem:
     a serial algorithm will be used


     Parallelization info
     --------------------
     sticks:   dense  smooth     PW     G-vecs:    dense   smooth      PW
     Min          61      26      8                18329     5320     852
     Max          62      27      9                18346     5365     880
     Sum        1957     855    257               586667   170897   27731

     Using Slab Decomposition



     bravais-lattice index     =            0
     lattice parameter (alat)  =       5.5223  a.u.
     unit-cell volume          =    3105.8847 (a.u.)^3
     number of atoms/cell      =           12
     number of atomic types    =            1
     number of electrons       =       132.00
     number of Kohn-Sham states=           79
     kinetic-energy cutoff     =      55.0000  Ry
     charge density cutoff     =     500.0000  Ry
     scf convergence threshold =      1.0E-06
     mixing beta               =       0.3000
     number of iterations used =            8  plain     mixing
     energy convergence thresh.=      1.0E-04
     force convergence thresh. =      1.0E-03
     Exchange-correlation= PBE
                           (   1   4   3   4   0   0   0)
     nstep                     =          500


     celldm(1)=   5.522345  celldm(2)=   0.000000  celldm(3)=   0.000000
     celldm(4)=   0.000000  celldm(5)=   0.000000  celldm(6)=   0.000000

     crystal axes: (cart. coord. in units of alat)
               a(1) = (   1.000000   0.000000   0.000000 )  
               a(2) = (   0.000000   1.608891   0.000000 )  
               a(3) = (   0.000000   0.000000  11.462728 )  

     reciprocal axes: (cart. coord. in units 2 pi/alat)
               b(1) = (  1.000000 -0.000000  0.000000 )  
               b(2) = (  0.000000  0.621546  0.000000 )  
               b(3) = ( -0.000000 -0.000000  0.087239 )  


     PseudoPot. # 1 for Ag read from file:
     /home/ecastro/trabajo_final/pseudos/Ag.pbe-n-rrkjus_psl.1.0.0.UPF
     MD5 check sum: 81cdf87bacf708300839c66ee23ce017
     Pseudo is Ultrasoft + core correction, Zval = 11.0
     Generated using &quot;atomic&quot; code by A. Dal Corso  v.6.2.2
     Using radial grid of 1237 points,  6 beta functions with: 
                l(1) =   0
                l(2) =   0
                l(3) =   1
                l(4) =   1
                l(5) =   2
                l(6) =   2
     Q(r) pseudized with 0 coefficients 


     atomic species   valence    mass     pseudopotential
        Ag            11.00   107.86820     Ag( 1.00)

     No symmetry found



   Cartesian axes

     site n.     atom                  positions (alat units)
         1           Ag  tau(   1) = (   0.2500000   1.2066685   8.0407653  )
         2           Ag  tau(   2) = (   0.7500000   0.4022228   7.7520902  )
         3           Ag  tau(   3) = (   0.7500000   1.2066685   7.1747399  )
         4           Ag  tau(   4) = (   0.2500000   0.4022228   6.8860648  )
         5           Ag  tau(   5) = (   0.2500000   1.2066685   6.3087145  )
         6           Ag  tau(   6) = (   0.7500000   0.4022228   6.0200394  )
         7           Ag  tau(   7) = (   0.7500000   1.2066685   5.4426891  )
         8           Ag  tau(   8) = (   0.2500000   0.4022228   5.1540140  )
         9           Ag  tau(   9) = (   0.2500000   1.2066685   4.5766637  )
        10           Ag  tau(  10) = (   0.7500000   0.4022228   4.2879886  )
        11           Ag  tau(  11) = (   0.7500000   1.2066685   3.7106383  )
        12           Ag  tau(  12) = (   0.2500000   0.4022228   3.4219632  )

     --------------------------------------------
     DFT-D3 Dispersion Correction (no 3-body):
     --------------------------------------------
       Reference C6 values for interpolation: 

         atom   Coordination number   C6
         Ag         0.000           853.49
         Ag         0.968           537.23

       Values used:

         atom   Coordination number  R0_AB[au]  C6      C8
         Ag         5.720            3.147    537.23  47741.54
         Ag         7.200            3.147    537.23  47741.54
         Ag         8.618            3.147    537.23  47741.54
         Ag         8.626            3.147    537.23  47741.54
         Ag         8.630            3.147    537.23  47741.54
         Ag         8.631            3.147    537.23  47741.54
         Ag         8.631            3.147    537.23  47741.54
         Ag         8.630            3.147    537.23  47741.54
         Ag         8.626            3.147    537.23  47741.54
         Ag         8.618            3.147    537.23  47741.54
         Ag         7.200            3.147    537.23  47741.54
         Ag         5.720            3.147    537.23  47741.54

         Molecular C6 ( Ry / a.u.^6 ) =     77360.54


     number of k points=    34  Methfessel-Paxton smearing, width (Ry)=  0.0300
                       cart. coord. in units 2pi/alat
        k(    1) = (   0.0000000   0.0000000   0.0000000), wk =   0.0312500
        k(    2) = (   0.0000000   0.0776933   0.0000000), wk =   0.0625000
        k(    3) = (   0.0000000   0.1553865   0.0000000), wk =   0.0625000
        k(    4) = (   0.0000000   0.2330798   0.0000000), wk =   0.0625000
        k(    5) = (   0.0000000  -0.3107730   0.0000000), wk =   0.0312500
        k(    6) = (   0.1250000  -0.0000000   0.0000000), wk =   0.0625000
        k(    7) = (   0.1250000   0.0776933   0.0000000), wk =   0.0625000
        k(    8) = (   0.1250000   0.1553865   0.0000000), wk =   0.0625000
        k(    9) = (   0.1250000   0.2330798   0.0000000), wk =   0.0625000
        k(   10) = (   0.1250000  -0.3107730   0.0000000), wk =   0.0625000
        k(   11) = (   0.1250000  -0.2330798   0.0000000), wk =   0.0625000
        k(   12) = (   0.1250000  -0.1553865   0.0000000), wk =   0.0625000
        k(   13) = (   0.1250000  -0.0776933   0.0000000), wk =   0.0625000
        k(   14) = (   0.2500000  -0.0000000   0.0000000), wk =   0.0625000
        k(   15) = (   0.2500000   0.0776933   0.0000000), wk =   0.0625000
        k(   16) = (   0.2500000   0.1553865   0.0000000), wk =   0.0625000
        k(   17) = (   0.2500000   0.2330798   0.0000000), wk =   0.0625000
        k(   18) = (   0.2500000  -0.3107730   0.0000000), wk =   0.0625000
        k(   19) = (   0.2500000  -0.2330798   0.0000000), wk =   0.0625000
        k(   20) = (   0.2500000  -0.1553865   0.0000000), wk =   0.0625000
        k(   21) = (   0.2500000  -0.0776933   0.0000000), wk =   0.0625000
        k(   22) = (   0.3750000  -0.0000000   0.0000000), wk =   0.0625000
        k(   23) = (   0.3750000   0.0776933   0.0000000), wk =   0.0625000
        k(   24) = (   0.3750000   0.1553865   0.0000000), wk =   0.0625000
        k(   25) = (   0.3750000   0.2330798   0.0000000), wk =   0.0625000
        k(   26) = (   0.3750000  -0.3107730   0.0000000), wk =   0.0625000
        k(   27) = (   0.3750000  -0.2330798   0.0000000), wk =   0.0625000
        k(   28) = (   0.3750000  -0.1553865   0.0000000), wk =   0.0625000
        k(   29) = (   0.3750000  -0.0776933   0.0000000), wk =   0.0625000
        k(   30) = (  -0.5000000   0.0000000   0.0000000), wk =   0.0312500
        k(   31) = (  -0.5000000   0.0776933   0.0000000), wk =   0.0625000
        k(   32) = (  -0.5000000   0.1553865   0.0000000), wk =   0.0625000
        k(   33) = (  -0.5000000   0.2330798   0.0000000), wk =   0.0625000
        k(   34) = (  -0.5000000  -0.3107730   0.0000000), wk =   0.0312500

     Dense  grid:   586667 G-vectors     FFT dimensions: (  40,  64, 480)

     Smooth grid:   170897 G-vectors     FFT dimensions: (  27,  45, 300)

     Estimated max dynamical RAM per process >      37.78 MB

     Estimated total dynamical RAM >       4.30 GB
     Cannot read rho : file not found

     Initial potential from superposition of free atoms

     starting charge     131.9952, renormalised to     132.0000

     negative rho (up, down):  7.230E-05 0.000E+00
     Message from routine qexsd_readschema :
     xml data file ./Ag_100/Ag_100.save/data-file-schema.xml not found
     Cannot read wfcs: file not found
     Starting wfcs are  108 randomized atomic wfcs

     total cpu time spent up to now is       13.3 secs

     per-process dynamical memory:   186.7 Mb

     Self-consistent Calculation

     iteration #  1     ecut=    55.00 Ry     beta= 0.30
     Davidson diagonalization with overlap
     c_bands:  1 eigenvalues not converged
     c_bands:  2 eigenvalues not converged
     c_bands:  2 eigenvalues not converged
     c_bands:  3 eigenvalues not converged
     c_bands:  2 eigenvalues not converged
     c_bands:  1 eigenvalues not converged
     c_bands:  2 eigenvalues not converged
     c_bands:  2 eigenvalues not converged
     c_bands:  2 eigenvalues not converged
     ethr =  1.00E-05,  avg # of iterations = 19.4

     negative rho (up, down):  5.946E-05 0.000E+00

     total cpu time spent up to now is       24.2 secs

     total energy              =   -1011.44806810 Ry
     estimated scf accuracy    <       0.18893629 Ry

     iteration #  2     ecut=    55.00 Ry     beta= 0.30
     Davidson diagonalization with overlap
     ethr =  1.43E-04,  avg # of iterations = 10.4

     negative rho (up, down):  5.805E-05 0.000E+00

     total cpu time spent up to now is       27.8 secs

     total energy              =   -1011.34380256 Ry
     estimated scf accuracy    <       3.01087019 Ry

     iteration #  3     ecut=    55.00 Ry     beta= 0.30
     Davidson diagonalization with overlap
     ethr =  1.43E-04,  avg # of iterations =  9.6

     negative rho (up, down):  4.980E-05 0.000E+00

     total cpu time spent up to now is       30.8 secs

     total energy              =   -1011.50345706 Ry
     estimated scf accuracy    <       0.07268282 Ry

     iteration #  4     ecut=    55.00 Ry     beta= 0.30
     Davidson diagonalization with overlap
     ethr =  5.51E-05,  avg # of iterations =  1.7

     negative rho (up, down):  4.017E-05 0.000E+00

     total cpu time spent up to now is       32.4 secs

     total energy              =   -1011.50830871 Ry
     estimated scf accuracy    <       0.00572673 Ry

     iteration #  5     ecut=    55.00 Ry     beta= 0.30
     Davidson diagonalization with overlap
     ethr =  4.34E-06,  avg # of iterations = 10.5

     negative rho (up, down):  3.276E-05 0.000E+00

     total cpu time spent up to now is       35.1 secs

     total energy              =   -1011.50900128 Ry
     estimated scf accuracy    <       0.00091557 Ry

     iteration #  6     ecut=    55.00 Ry     beta= 0.30
     Davidson diagonalization with overlap
     ethr =  6.94E-07,  avg # of iterations =  7.3

     negative rho (up, down):  3.045E-05 0.000E+00

     total cpu time spent up to now is       37.5 secs

     total energy              =   -1011.50878705 Ry
     estimated scf accuracy    <       0.01072103 Ry

     iteration #  7     ecut=    55.00 Ry     beta= 0.30
     Davidson diagonalization with overlap
     ethr =  6.94E-07,  avg # of iterations =  2.2

     negative rho (up, down):  2.974E-05 0.000E+00

     total cpu time spent up to now is       39.1 secs

     total energy              =   -1011.50909877 Ry
     estimated scf accuracy    <       0.00080053 Ry

     iteration #  8     ecut=    55.00 Ry     beta= 0.30
     Davidson diagonalization with overlap
     ethr =  6.06E-07,  avg # of iterations =  1.4

     negative rho (up, down):  2.893E-05 0.000E+00

     total cpu time spent up to now is       40.6 secs

     total energy              =   -1011.50912586 Ry
     estimated scf accuracy    <       0.00001205 Ry

     iteration #  9     ecut=    55.00 Ry     beta= 0.30
     Davidson diagonalization with overlap
     ethr =  9.13E-09,  avg # of iterations =  4.9

     negative rho (up, down):  2.801E-05 0.000E+00

     total cpu time spent up to now is       42.9 secs

     total energy              =   -1011.50912872 Ry
     estimated scf accuracy    <       0.00000284 Ry

     iteration # 10     ecut=    55.00 Ry     beta= 0.30
     Davidson diagonalization with overlap
     ethr =  2.15E-09,  avg # of iterations =  2.2

     negative rho (up, down):  2.746E-05 0.000E+00

     total cpu time spent up to now is       44.3 secs

     total energy              =   -1011.50912910 Ry
     estimated scf accuracy    <       0.00000268 Ry

     iteration # 11     ecut=    55.00 Ry     beta= 0.30
     Davidson diagonalization with overlap
     ethr =  2.03E-09,  avg # of iterations =  1.6

     negative rho (up, down):  2.639E-05 0.000E+00

     total cpu time spent up to now is       45.7 secs

     End of self-consistent calculation

          k = 0.0000 0.0000 0.0000 ( 21445 PWs)   bands (ev):

    -4.2106  -3.7474  -3.1051  -2.8829  -2.8534  -2.7274  -2.6465  -2.6034
    -2.5252  -2.5183  -2.4855  -2.3464  -2.2940  -2.2222  -1.8005  -1.5748
    -1.5569  -1.4492  -1.3521  -1.3500  -1.3167  -1.3151  -1.2460  -1.2011
    -1.1829  -1.1791  -1.1059  -1.0948  -1.0412  -1.0297  -1.0204  -1.0160
    -0.9989  -0.9870  -0.9601  -0.9174  -0.8983  -0.8627  -0.8219  -0.8118
    -0.7896  -0.7462  -0.6626  -0.6215  -0.6070  -0.5998  -0.5533  -0.4590
    -0.3845  -0.3350  -0.1919  -0.1123   0.0518   0.0782   0.1527   0.1559
     0.2499   0.3005   0.3024   0.3688   0.3926   0.4195   0.5388   0.5390
     1.0384   2.4306   3.3852   3.4771   4.2873   5.4994   5.8521   6.8648
     7.0122   7.0237   7.1823   7.4828   7.6947   7.7274   8.0704

          k = 0.0000 0.0777 0.0000 ( 21497 PWs)   bands (ev):

    -4.0889  -3.6353  -3.0358  -2.8537  -2.8185  -2.7995  -2.6737  -2.6240
    -2.5763  -2.5542  -2.3607  -2.2907  -2.1973  -2.0277  -1.7235  -1.5823
    -1.5822  -1.4682  -1.4537  -1.3928  -1.3611  -1.3487  -1.3297  -1.3117
    -1.2874  -1.2589  -1.2217  -1.1769  -1.1509  -1.1207  -1.0978  -1.0656
    -1.0198  -0.9986  -0.9324  -0.8207  -0.8089  -0.7974  -0.7679  -0.7352
    -0.7279  -0.7033  -0.5603  -0.5417  -0.5319  -0.4786  -0.4042  -0.3631
    -0.3294  -0.1861  -0.1495  -0.1374   0.0422   0.0918   0.1212   0.1495
     0.2371   0.2446   0.2871   0.3400   0.3857   0.3932   0.5005   0.5050
     1.0575   2.4830   2.6258   3.3883   3.5768   4.4510   5.5580   5.8375
     6.7006   6.9350   7.7370   7.8044   8.0310   8.2287   8.3581

          k = 0.0000 0.1554 0.0000 ( 21465 PWs)   bands (ev):

    -3.7408  -3.3187  -2.9253  -2.8884  -2.7750  -2.7332  -2.6259  -2.6179
    -2.4866  -2.4703  -2.2821  -2.2124  -1.9969  -1.9392  -1.8737  -1.8377
    -1.6728  -1.6129  -1.5064  -1.5009  -1.4588  -1.4217  -1.4087  -1.3627
    -1.3327  -1.2520  -1.2517  -1.2346  -1.1921  -1.1680  -1.1345  -1.0603
    -1.0077  -0.9849  -0.8860  -0.8402  -0.8256  -0.7297  -0.6581  -0.5740
    -0.5347  -0.5302  -0.4918  -0.4272  -0.3805  -0.3632  -0.2808  -0.2139
    -0.1655  -0.1004  -0.0742   0.0058   0.0062   0.0400   0.1442   0.1615
     0.1876   0.2177   0.2644   0.2746   0.3596   0.3628   0.4160   0.4346
     1.1735   1.3011   2.0711   2.6975   3.0271   3.7337   4.0221   5.0134
     5.9487   6.1996   7.7990   8.0518   8.3217   8.9361   9.2806

          k = 0.0000 0.2331 0.0000 ( 21389 PWs)   bands (ev):

    -3.2414  -2.9338  -2.8641  -2.7834  -2.7076  -2.6596  -2.5727  -2.4879
    -2.3718  -2.3647  -2.2124  -2.1404  -2.1345  -2.0853  -2.0098  -1.9069
    -1.8732  -1.7139  -1.6319  -1.5902  -1.4837  -1.4770  -1.4288  -1.4158
    -1.3773  -1.3434  -1.2949  -1.2535  -1.1823  -1.0668  -0.9789  -0.9695
    -0.9259  -0.8748  -0.8628  -0.8460  -0.8151  -0.6382  -0.5954  -0.5926
    -0.4137  -0.4019  -0.3016  -0.2891  -0.2774  -0.2758  -0.2580  -0.1959
    -0.1866  -0.0983  -0.0283  -0.0126   0.0810   0.0969   0.1221   0.1645
     0.1765   0.1774   0.2925   0.2983   0.3097   0.3766   0.3788   0.3901
     0.5591   0.9555   1.6435   1.7064   2.6012   3.1736   3.6591   4.0393
     5.3042   5.7120   8.1720   8.2436   8.7999   8.8412   9.0149

          k = 0.0000-0.3108 0.0000 ( 21400 PWs)   bands (ev):

    -2.8175  -2.8175  -2.8027  -2.8027  -2.6427  -2.6427  -2.4948  -2.4948
    -2.3644  -2.3644  -2.1518  -2.1518  -2.0807  -2.0807  -2.0200  -2.0199
    -1.8498  -1.8498  -1.7166  -1.7166  -1.5531  -1.5531  -1.4102  -1.4101
    -1.3356  -1.3356  -1.1790  -1.1790  -1.1358  -1.1358  -1.0734  -1.0734
    -0.8710  -0.8710  -0.7714  -0.7713  -0.6856  -0.6856  -0.6367  -0.6366
    -0.4503  -0.4502  -0.4473  -0.4472  -0.0878  -0.0878  -0.0814  -0.0814
    -0.0757  -0.0757  -0.0181  -0.0181  -0.0087  -0.0086   0.1145   0.1145
     0.1899   0.1899   0.2691   0.2691   0.2860   0.2861   0.3759   0.3760
     0.7420   0.7421   1.4445   1.4445   2.5076   2.5076   3.7567   3.7567
     5.2718   5.2721   8.3865   8.3867   8.9509   8.9510   9.4354

          k = 0.1250-0.0000 0.0000 ( 21499 PWs)   bands (ev):

    -3.9068  -3.4628  -2.8413  -2.7229  -2.6501  -2.5086  -2.5040  -2.4791
    -2.4224  -2.3507  -2.3302  -2.2426  -2.1655  -2.0815  -1.8661  -1.7406
    -1.6848  -1.5206  -1.4889  -1.4483  -1.4128  -1.3879  -1.3151  -1.1863
    -1.1813  -1.1771  -1.1361  -1.1251  -1.1074  -1.0720  -1.0597  -1.0176
    -1.0170  -1.0017  -0.9540  -0.9309  -0.9229  -0.9040  -0.8824  -0.8541
    -0.7771  -0.7584  -0.7386  -0.6793  -0.6093  -0.6075  -0.5479  -0.4812
    -0.4453  -0.2991  -0.1614  -0.0991  -0.0105   0.0461   0.0646   0.1409
     0.2944   0.2950   0.2991   0.3320   0.3612   0.4575   0.4614   0.4775
     1.4720   2.8357   3.9568   4.1639   4.9285   6.0293   6.1346   7.1062
     7.2799   7.3003   7.3215   7.6490   7.9598   8.0088   8.2689

          k = 0.1250 0.0777 0.0000 ( 21491 PWs)   bands (ev):

    -3.7912  -3.3600  -2.7842  -2.6881  -2.6606  -2.6121  -2.4766  -2.4656
    -2.4458  -2.3846  -2.1722  -2.1426  -2.0606  -2.0042  -1.8287  -1.7725
    -1.6923  -1.6167  -1.5262  -1.5242  -1.4454  -1.4378  -1.3538  -1.3038
    -1.2588  -1.2428  -1.1991  -1.1639  -1.1203  -1.1092  -1.0749  -1.0513
    -1.0311  -1.0192  -0.8947  -0.8798  -0.8385  -0.8251  -0.8026  -0.7594
    -0.7469  -0.7298  -0.7157  -0.6533  -0.5601  -0.5500  -0.4880  -0.4107
    -0.3991  -0.2172  -0.1530  -0.1227  -0.0100   0.0252   0.0899   0.1429
     0.2115   0.2530   0.2931   0.3087   0.3197   0.3952   0.4071   0.5582
     1.5323   2.9120   3.3168   3.9172   4.1029   4.8817   5.9412   6.1663
     7.0634   7.2590   8.0325   8.0755   8.2023   8.4601   8.6176

          k = 0.1250 0.1554 0.0000 ( 21468 PWs)   bands (ev):

    -3.4612  -3.0721  -2.7740  -2.6831  -2.5919  -2.5234  -2.4552  -2.4188
    -2.3482  -2.2962  -2.0882  -2.0765  -1.9880  -1.9234  -1.8412  -1.7383
    -1.7203  -1.7051  -1.6127  -1.5416  -1.4740  -1.4596  -1.4194  -1.4187
    -1.4125  -1.3762  -1.3064  -1.2482  -1.2069  -1.1916  -1.1233  -1.0804
    -1.0412  -1.0241  -0.9779  -0.9033  -0.7840  -0.7558  -0.7403  -0.6932
    -0.6480  -0.5467  -0.5173  -0.4292  -0.4184  -0.3915  -0.3017  -0.2985
    -0.2383  -0.1756  -0.1541  -0.0639  -0.0569  -0.0359   0.0003   0.0257
     0.1649   0.1825   0.2380   0.2601   0.2740   0.3442   0.4125   0.6915
     1.7286   1.9936   2.5685   3.1154   3.4523   4.2336   4.4895   5.4530
     6.2900   6.5945   8.0530   8.3360   8.5743   9.1796   9.5305

          k = 0.1250 0.2331 0.0000 ( 21413 PWs)   bands (ev):

    -2.9867  -2.7700  -2.6673  -2.6218  -2.4904  -2.4467  -2.4003  -2.3536
    -2.2358  -2.1995  -2.1788  -2.1075  -1.9647  -1.9034  -1.8583  -1.8343
    -1.7177  -1.7043  -1.6416  -1.6369  -1.5336  -1.5286  -1.4644  -1.4565
    -1.3978  -1.3766  -1.3119  -1.2712  -1.2226  -1.1854  -1.1463  -1.1305
    -1.1124  -1.0302  -0.9655  -0.9488  -0.8809  -0.8235  -0.7506  -0.6598
    -0.4800  -0.4654  -0.4609  -0.4193  -0.3478  -0.2984  -0.2846  -0.2011
    -0.1690  -0.1621  -0.0559  -0.0433   0.0082   0.0287   0.1101   0.1125
     0.1388   0.1699   0.2130   0.2597   0.3703   0.3786   0.4378   0.9130
     1.0613   1.3773   2.0642   2.1877   2.9880   3.6467   4.1213   4.7103
     5.6589   6.1662   8.3957   8.4979   9.0531   9.0798   9.2641

          k = 0.1250-0.3108 0.0000 ( 21356 PWs)   bands (ev):

    -2.6395  -2.6395  -2.5719  -2.5719  -2.5043  -2.5043  -2.3250  -2.3249
    -2.2516  -2.2516  -2.0306  -2.0306  -1.9298  -1.9297  -1.9046  -1.9045
    -1.7538  -1.7537  -1.7010  -1.7009  -1.6256  -1.6256  -1.4389  -1.4389
    -1.3434  -1.3433  -1.3026  -1.3025  -1.2249  -1.2249  -1.1071  -1.1070
    -1.0059  -1.0059  -0.9073  -0.9073  -0.8502  -0.8502  -0.7981  -0.7981
    -0.6216  -0.6216  -0.5346  -0.5345  -0.3277  -0.3276  -0.1866  -0.1865
    -0.0838  -0.0838  -0.0383  -0.0382   0.0918   0.0919   0.2149   0.2150
     0.2784   0.2785   0.3317   0.3318   0.3609   0.3610   0.5501   0.5501
     1.0311   1.0311   1.8351   1.8351   2.9950   2.9950   4.3137   4.3137
     5.7300   5.7301   8.5924   8.5925   9.2103   9.2104   9.7072

          k = 0.1250-0.2331 0.0000 ( 21413 PWs)   bands (ev):

    -2.9867  -2.7700  -2.6673  -2.6218  -2.4904  -2.4467  -2.4003  -2.3536
    -2.2358  -2.1995  -2.1788  -2.1075  -1.9647  -1.9034  -1.8583  -1.8343
    -1.7177  -1.7043  -1.6416  -1.6369  -1.5336  -1.5286  -1.4644  -1.4565
    -1.3978  -1.3766  -1.3119  -1.2712  -1.2226  -1.1854  -1.1463  -1.1305
    -1.1124  -1.0302  -0.9655  -0.9488  -0.8809  -0.8235  -0.7506  -0.6598
    -0.4800  -0.4654  -0.4609  -0.4193  -0.3478  -0.2984  -0.2846  -0.2011
    -0.1690  -0.1621  -0.0559  -0.0433   0.0082   0.0287   0.1101   0.1125
     0.1388   0.1699   0.2130   0.2597   0.3703   0.3786   0.4378   0.9130
     1.0613   1.3773   2.0642   2.1877   2.9880   3.6467   4.1213   4.7103
     5.6589   6.1662   8.3957   8.4979   9.0531   9.0798   9.2641

          k = 0.1250-0.1554 0.0000 ( 21468 PWs)   bands (ev):

    -3.4612  -3.0721  -2.7740  -2.6831  -2.5919  -2.5234  -2.4552  -2.4188
    -2.3482  -2.2962  -2.0882  -2.0765  -1.9880  -1.9234  -1.8412  -1.7383
    -1.7203  -1.7051  -1.6127  -1.5416  -1.4740  -1.4596  -1.4194  -1.4187
    -1.4125  -1.3762  -1.3064  -1.2482  -1.2069  -1.1916  -1.1233  -1.0804
    -1.0412  -1.0241  -0.9779  -0.9033  -0.7840  -0.7558  -0.7403  -0.6932
    -0.6480  -0.5467  -0.5173  -0.4292  -0.4184  -0.3915  -0.3017  -0.2985
    -0.2383  -0.1756  -0.1541  -0.0639  -0.0569  -0.0359   0.0003   0.0257
     0.1649   0.1825   0.2380   0.2601   0.2740   0.3442   0.4125   0.6915
     1.7286   1.9936   2.5685   3.1154   3.4523   4.2336   4.4895   5.4530
     6.2900   6.5945   8.0530   8.3360   8.5743   9.1796   9.5305

          k = 0.1250-0.0777 0.0000 ( 21491 PWs)   bands (ev):

    -3.7912  -3.3600  -2.7842  -2.6881  -2.6606  -2.6121  -2.4766  -2.4656
    -2.4458  -2.3846  -2.1722  -2.1426  -2.0606  -2.0042  -1.8287  -1.7725
    -1.6923  -1.6167  -1.5262  -1.5242  -1.4454  -1.4378  -1.3538  -1.3038
    -1.2588  -1.2428  -1.1991  -1.1639  -1.1203  -1.1092  -1.0749  -1.0513
    -1.0311  -1.0192  -0.8947  -0.8798  -0.8385  -0.8251  -0.8026  -0.7594
    -0.7469  -0.7298  -0.7157  -0.6533  -0.5601  -0.5500  -0.4880  -0.4107
    -0.3991  -0.2172  -0.1530  -0.1227  -0.0100   0.0252   0.0899   0.1429
     0.2115   0.2530   0.2931   0.3087   0.3197   0.3952   0.4071   0.5582
     1.5323   2.9120   3.3168   3.9172   4.1029   4.8817   5.9412   6.1663
     7.0634   7.2590   8.0325   8.0755   8.2023   8.4600   8.6174

          k = 0.2500-0.0000 0.0000 ( 21417 PWs)   bands (ev):

    -3.1323  -2.8401  -2.4989  -2.4875  -2.4814  -2.4339  -2.3492  -2.3366
    -2.2412  -2.2079  -2.1824  -2.1187  -2.1109  -1.8682  -1.7553  -1.7074
    -1.6634  -1.6437  -1.6117  -1.5304  -1.5028  -1.4960  -1.4715  -1.4620
    -1.4049  -1.3311  -1.2614  -1.2459  -1.2168  -1.1669  -1.1525  -1.0783
    -1.0605  -0.9716  -0.9647  -0.8897  -0.8079  -0.7932  -0.7654  -0.7339
    -0.7102  -0.7037  -0.5864  -0.4605  -0.4081  -0.4029  -0.3750  -0.3665
    -0.2856  -0.1482  -0.1303  -0.0502  -0.0404   0.0702   0.0817   0.2795
     0.2895   0.2936   0.3135   0.3318   0.3445   0.4169   0.4267   1.1744
     2.3686   3.7931   5.1598   5.8539   6.4488   6.9119   7.3690   7.4244
     7.6467   8.0733   8.1116   8.5143   8.5925   8.7586   8.7887

          k = 0.2500 0.0777 0.0000 ( 21426 PWs)   bands (ev):

    -3.0587  -2.8085  -2.5107  -2.4899  -2.4431  -2.4101  -2.3314  -2.2990
    -2.2725  -2.2117  -2.1120  -2.0827  -1.9942  -1.8391  -1.8189  -1.7961
    -1.7270  -1.6962  -1.6908  -1.6112  -1.5105  -1.4889  -1.3752  -1.3518
    -1.3466  -1.3131  -1.2741  -1.2004  -1.1797  -1.1767  -1.1704  -1.1132
    -1.0531  -0.9918  -0.9488  -0.8914  -0.8171  -0.7919  -0.7870  -0.7320
    -0.5940  -0.5927  -0.5256  -0.4457  -0.4320  -0.3975  -0.3816  -0.3667
    -0.2811  -0.1328  -0.1220  -0.0414  -0.0175   0.1007   0.1078   0.1668
     0.2066   0.2112   0.3161   0.3366   0.3559   0.3706   0.4081   1.2331
     2.4495   3.8865   4.6872   5.1133   5.3397   5.9089   6.8995   7.0219
     7.9913   8.1009   8.7142   8.8018   8.8773   8.9437   9.1288

          k = 0.2500 0.1554 0.0000 ( 21427 PWs)   bands (ev):

    -2.8611  -2.7204  -2.5373  -2.4699  -2.3486  -2.3308  -2.3116  -2.2889
    -2.1722  -2.1692  -2.0426  -1.9935  -1.9581  -1.9438  -1.8552  -1.8523
    -1.7322  -1.7085  -1.6275  -1.5933  -1.5299  -1.5177  -1.4371  -1.4293
    -1.3459  -1.3429  -1.2773  -1.2511  -1.1242  -1.1109  -1.0998  -1.0802
    -1.0400  -0.9826  -0.9171  -0.9016  -0.7972  -0.7597  -0.7265  -0.6766
    -0.6108  -0.5447  -0.4293  -0.4127  -0.3699  -0.3461  -0.3113  -0.2497
    -0.1746  -0.1511  -0.1038  -0.0804  -0.0300  -0.0210   0.0002   0.1112
     0.1941   0.2027   0.2168   0.2699   0.4063   0.4120   0.4799   1.4279
     2.6949   3.1879   3.6217   4.0796   4.4418   5.2195   5.7807   6.4763
     7.2345   7.6035   8.7950   9.1738   9.2808   9.3420   9.7635

          k = 0.2500 0.2331 0.0000 ( 21410 PWs)   bands (ev):

    -2.6105  -2.5876  -2.4829  -2.4322  -2.3718  -2.3583  -2.2507  -2.2292
    -2.1535  -2.1388  -2.0314  -2.0054  -1.9510  -1.9004  -1.8407  -1.8375
    -1.6785  -1.6571  -1.6547  -1.6180  -1.5463  -1.5324  -1.4609  -1.4487
    -1.3554  -1.3008  -1.2789  -1.2519  -1.0679  -1.0448  -1.0390  -1.0087
    -0.9914  -0.9611  -0.9209  -0.8980  -0.8134  -0.7898  -0.7789  -0.7416
    -0.6430  -0.6109  -0.5390  -0.4771  -0.4123  -0.3982  -0.3811  -0.3384
    -0.1729  -0.1541  -0.0001   0.0060   0.0783   0.1134   0.1664   0.1901
     0.2274   0.2648   0.3148   0.3944   0.4299   0.4713   0.8888   1.8151
     1.9592   2.2577   2.9309   3.1761   3.9376   4.6711   5.2070   6.2276
     6.5691   7.3659   9.0699   9.2549   9.8184   9.8324   9.9068

          k = 0.2500-0.3108 0.0000 ( 21358 PWs)   bands (ev):

    -2.4404  -2.4403  -2.4277  -2.4277  -2.3708  -2.3708  -2.3215  -2.3214
    -2.2216  -2.2216  -1.8985  -1.8985  -1.8544  -1.8543  -1.7857  -1.7857
    -1.7558  -1.7558  -1.7444  -1.7444  -1.5615  -1.5613  -1.3892  -1.3891
    -1.2165  -1.2164  -1.2020  -1.2020  -1.1049  -1.1049  -1.0076  -1.0075
    -0.9396  -0.9396  -0.8743  -0.8743  -0.8374  -0.8374  -0.7994  -0.7994
    -0.6952  -0.6952  -0.6328  -0.6328  -0.4960  -0.4958  -0.4339  -0.4338
    -0.0681  -0.0680  -0.0328  -0.0327   0.1184   0.1185   0.2891   0.2893
     0.3513   0.3513   0.3822   0.3822   0.9010   0.9010   1.1660   1.1661
     1.7468   1.7469   2.7285   2.7285   4.0371   4.0372   5.5117   5.5118
     6.9715   6.9717   9.2263   9.2264   9.9962   9.9963  10.5198

          k = 0.2500-0.2331 0.0000 ( 21410 PWs)   bands (ev):

    -2.6105  -2.5876  -2.4829  -2.4322  -2.3718  -2.3583  -2.2507  -2.2292
    -2.1535  -2.1388  -2.0314  -2.0054  -1.9510  -1.9004  -1.8407  -1.8375
    -1.6785  -1.6571  -1.6547  -1.6180  -1.5463  -1.5324  -1.4609  -1.4487
    -1.3554  -1.3008  -1.2789  -1.2519  -1.0679  -1.0448  -1.0390  -1.0087
    -0.9914  -0.9611  -0.9209  -0.8980  -0.8134  -0.7898  -0.7789  -0.7416
    -0.6430  -0.6109  -0.5390  -0.4771  -0.4123  -0.3982  -0.3811  -0.3384
    -0.1729  -0.1541  -0.0001   0.0060   0.0783   0.1134   0.1664   0.1901
     0.2274   0.2648   0.3148   0.3944   0.4299   0.4713   0.8888   1.8151
     1.9592   2.2577   2.9309   3.1761   3.9376   4.6711   5.2070   6.2276
     6.5691   7.3659   9.0699   9.2549   9.8159   9.8324   9.9044

          k = 0.2500-0.1554 0.0000 ( 21427 PWs)   bands (ev):

    -2.8611  -2.7204  -2.5373  -2.4699  -2.3486  -2.3308  -2.3116  -2.2889
    -2.1722  -2.1692  -2.0426  -1.9935  -1.9581  -1.9438  -1.8552  -1.8523
    -1.7322  -1.7085  -1.6275  -1.5933  -1.5299  -1.5177  -1.4371  -1.4293
    -1.3459  -1.3429  -1.2773  -1.2511  -1.1242  -1.1109  -1.0998  -1.0802
    -1.0400  -0.9826  -0.9171  -0.9016  -0.7972  -0.7597  -0.7265  -0.6766
    -0.6108  -0.5447  -0.4293  -0.4127  -0.3699  -0.3461  -0.3113  -0.2497
    -0.1746  -0.1511  -0.1038  -0.0804  -0.0300  -0.0210   0.0002   0.1112
     0.1941   0.2027   0.2168   0.2699   0.4063   0.4120   0.4799   1.4279
     2.6949   3.1879   3.6217   4.0796   4.4418   5.2195   5.7807   6.4763
     7.2345   7.6035   8.7950   9.1738   9.2808   9.3420   9.7634

          k = 0.2500-0.0777 0.0000 ( 21426 PWs)   bands (ev):

    -3.0587  -2.8085  -2.5107  -2.4899  -2.4431  -2.4101  -2.3314  -2.2990
    -2.2725  -2.2117  -2.1120  -2.0827  -1.9942  -1.8391  -1.8189  -1.7961
    -1.7270  -1.6962  -1.6908  -1.6112  -1.5105  -1.4889  -1.3752  -1.3518
    -1.3466  -1.3131  -1.2741  -1.2004  -1.1797  -1.1767  -1.1704  -1.1132
    -1.0531  -0.9918  -0.9488  -0.8914  -0.8171  -0.7919  -0.7870  -0.7320
    -0.5940  -0.5927  -0.5256  -0.4457  -0.4320  -0.3975  -0.3816  -0.3667
    -0.2811  -0.1328  -0.1220  -0.0414  -0.0175   0.1007   0.1078   0.1668
     0.2066   0.2112   0.3161   0.3366   0.3559   0.3706   0.4081   1.2331
     2.4495   3.8865   4.6872   5.1133   5.3397   5.9089   6.8995   7.0219
     7.9912   8.1009   8.7141   8.8018   8.8776   8.9437   9.1288

          k = 0.3750-0.0000 0.0000 ( 21365 PWs)   bands (ev):

    -2.7095  -2.7011  -2.5419  -2.5017  -2.4989  -2.4888  -2.4539  -2.4322
    -2.4018  -2.3688  -2.2745  -2.2365  -2.1472  -2.1275  -2.1060  -1.9032
    -1.6709  -1.6410  -1.6315  -1.4847  -1.4713  -1.4297  -1.4191  -1.3569
    -1.3455  -1.3027  -1.2201  -1.1741  -1.1132  -1.0607  -1.0477  -1.0279
    -1.0016  -0.9561  -0.8997  -0.8895  -0.8381  -0.7677  -0.7099  -0.4922
    -0.3907  -0.3265  -0.1692  -0.0425  -0.0393  -0.0366  -0.0078   0.0961
     0.1044   0.1271   0.1837   0.2009   0.2201   0.2817   0.3007   0.3126
     0.3523   0.3679   0.4411   0.4426   0.7494   0.8955   1.4209   2.4111
     3.6861   5.1079   5.4476   5.9833   6.6053   6.8903   7.5337   7.9403
     8.1678   8.2156   8.2361   8.3929   9.0474   9.1237   9.2481

          k = 0.3750 0.0777 0.0000 ( 21373 PWs)   bands (ev):

    -2.7178  -2.7145  -2.6307  -2.6283  -2.5565  -2.5399  -2.4368  -2.3916
    -2.3116  -2.2866  -2.1294  -2.1203  -2.1036  -2.0626  -2.0200  -1.8893
    -1.7223  -1.6163  -1.6052  -1.5845  -1.5362  -1.4976  -1.4863  -1.4542
    -1.4093  -1.3812  -1.3292  -1.2994  -1.1133  -1.0948  -1.0659  -1.0285
    -0.9276  -0.9249  -0.7974  -0.7557  -0.7244  -0.5476  -0.5257  -0.5020
    -0.3473  -0.2320  -0.1273  -0.0550  -0.0326  -0.0024   0.0480   0.1035
     0.1065   0.1261   0.1502   0.1649   0.2168   0.2428   0.2633   0.2654
     0.3373   0.3420   0.3706   0.3746   0.8053   0.9042   1.4323   2.4605
     3.7625   5.2028   5.5479   6.0039   6.2737   6.4326   6.6561   6.9437
     7.0674   8.1583   8.4800   8.5967   9.0818   9.6082   9.6596

          k = 0.3750 0.1554 0.0000 ( 21345 PWs)   bands (ev):

    -2.8118  -2.8070  -2.6304  -2.6123  -2.5321  -2.5262  -2.3730  -2.3328
    -2.2599  -2.2073  -2.1042  -2.0060  -1.9827  -1.9645  -1.9300  -1.9093
    -1.8647  -1.8618  -1.7990  -1.7461  -1.5953  -1.5764  -1.5250  -1.4936
    -1.4064  -1.3482  -1.2557  -1.2249  -1.1572  -1.0517  -1.0478  -0.8909
    -0.7844  -0.7398  -0.6682  -0.6618  -0.6563  -0.4629  -0.4134  -0.3029
    -0.2341  -0.1882  -0.1331  -0.0900  -0.0277  -0.0255  -0.0063   0.0319
     0.0445   0.1101   0.1180   0.1441   0.1783   0.1858   0.2394   0.2569
     0.3151   0.3497   0.3938   0.4232   0.9411   1.0065   1.5663   2.6553
     3.9903   4.6653   4.9552   5.3310   5.5512   5.7886   6.0607   6.2116
     7.4039   8.0466   8.1922   8.6233   8.8214   9.2502   9.7761

          k = 0.3750 0.2331 0.0000 ( 21344 PWs)   bands (ev):

    -2.7997  -2.7953  -2.5987  -2.5945  -2.4865  -2.4800  -2.3725  -2.3105
    -2.2353  -2.1962  -2.1746  -2.1270  -2.1041  -2.0801  -2.0092  -1.9810
    -1.8813  -1.8799  -1.7295  -1.7201  -1.6112  -1.6077  -1.5215  -1.4535
    -1.3196  -1.2504  -1.1283  -1.0620  -1.0470  -0.9920  -0.9442  -0.7753
    -0.7076  -0.6866  -0.6286  -0.5545  -0.5181  -0.4423  -0.4162  -0.3809
    -0.3697  -0.3611  -0.3160  -0.2275  -0.1704  -0.1575   0.0538   0.0744
     0.1140   0.1353   0.1958   0.2063   0.2116   0.2394   0.2639   0.2695
     0.3444   0.3596   0.4086   0.4423   1.3108   1.4695   2.0507   3.0642
     3.2811   3.5318   4.1279   4.3527   5.0651   5.6251   6.1844   6.2135
     7.8537   7.9298   8.3535   8.5543   8.6739   9.0255   9.2203

          k = 0.3750-0.3108 0.0000 ( 21340 PWs)   bands (ev):

    -2.6712  -2.6712  -2.6647  -2.6647  -2.4917  -2.4917  -2.4536  -2.4536
    -2.2025  -2.2024  -2.1527  -2.1526  -2.0479  -2.0479  -2.0316  -2.0315
    -1.8793  -1.8793  -1.7848  -1.7848  -1.5638  -1.5638  -1.5044  -1.5043
    -1.2016  -1.2016  -1.0095  -1.0095  -0.8675  -0.8675  -0.7682  -0.7682
    -0.7396  -0.7395  -0.6750  -0.6750  -0.5886  -0.5886  -0.5408  -0.5407
    -0.3543  -0.3543  -0.3144  -0.3144  -0.0494  -0.0494   0.0636   0.0636
     0.1238   0.1238   0.2060   0.2060   0.2747   0.2747   0.3089   0.3090
     0.3350   0.3350   0.3670   0.3670   2.1094   2.1094   2.3374   2.3374
     2.9164   2.9165   3.8989   3.8990   5.1524   5.1525   6.3793   6.3794
     7.9586   7.9587   8.4138   8.4139   8.8513   8.8521   9.0652

          k = 0.3750-0.2331 0.0000 ( 21344 PWs)   bands (ev):

    -2.7997  -2.7953  -2.5987  -2.5945  -2.4865  -2.4800  -2.3725  -2.3105
    -2.2353  -2.1962  -2.1746  -2.1270  -2.1041  -2.0801  -2.0092  -1.9810
    -1.8813  -1.8799  -1.7295  -1.7201  -1.6112  -1.6077  -1.5215  -1.4535
    -1.3196  -1.2504  -1.1283  -1.0620  -1.0470  -0.9920  -0.9442  -0.7753
    -0.7076  -0.6866  -0.6286  -0.5545  -0.5181  -0.4423  -0.4162  -0.3809
    -0.3697  -0.3611  -0.3160  -0.2275  -0.1704  -0.1575   0.0538   0.0744
     0.1140   0.1353   0.1958   0.2063   0.2116   0.2394   0.2639   0.2695
     0.3444   0.3596   0.4086   0.4423   1.3108   1.4695   2.0507   3.0642
     3.2811   3.5318   4.1279   4.3527   5.0651   5.6251   6.1844   6.2135
     7.8537   7.9298   8.3534   8.5542   8.6739   9.0255   9.2204

          k = 0.3750-0.1554 0.0000 ( 21345 PWs)   bands (ev):

    -2.8118  -2.8070  -2.6304  -2.6123  -2.5321  -2.5262  -2.3730  -2.3328
    -2.2599  -2.2073  -2.1042  -2.0060  -1.9827  -1.9645  -1.9300  -1.9093
    -1.8647  -1.8618  -1.7990  -1.7461  -1.5953  -1.5764  -1.5250  -1.4936
    -1.4064  -1.3482  -1.2557  -1.2249  -1.1572  -1.0517  -1.0478  -0.8909
    -0.7844  -0.7398  -0.6682  -0.6618  -0.6563  -0.4629  -0.4134  -0.3029
    -0.2341  -0.1882  -0.1331  -0.0900  -0.0277  -0.0255  -0.0063   0.0319
     0.0445   0.1101   0.1180   0.1441   0.1783   0.1858   0.2394   0.2569
     0.3151   0.3497   0.3938   0.4232   0.9411   1.0065   1.5663   2.6553
     3.9903   4.6653   4.9552   5.3310   5.5512   5.7886   6.0607   6.2116
     7.4039   8.0466   8.1922   8.6234   8.8215   9.2502   9.7767

          k = 0.3750-0.0777 0.0000 ( 21373 PWs)   bands (ev):

    -2.7178  -2.7145  -2.6307  -2.6283  -2.5565  -2.5399  -2.4368  -2.3916
    -2.3116  -2.2866  -2.1294  -2.1203  -2.1036  -2.0626  -2.0200  -1.8893
    -1.7223  -1.6163  -1.6052  -1.5845  -1.5362  -1.4976  -1.4863  -1.4542
    -1.4093  -1.3812  -1.3292  -1.2994  -1.1133  -1.0948  -1.0659  -1.0285
    -0.9276  -0.9249  -0.7974  -0.7557  -0.7244  -0.5476  -0.5257  -0.5020
    -0.3473  -0.2320  -0.1273  -0.0550  -0.0326  -0.0024   0.0480   0.1035
     0.1065   0.1261   0.1502   0.1649   0.2168   0.2428   0.2633   0.2654
     0.3373   0.3420   0.3706   0.3746   0.8053   0.9042   1.4323   2.4605
     3.7625   5.2028   5.5479   6.0039   6.2737   6.4326   6.6561   6.9437
     7.0674   8.1583   8.4800   8.5967   9.0819   9.6082   9.6593

          k =-0.5000 0.0000 0.0000 ( 21294 PWs)   bands (ev):

    -2.8098  -2.8066  -2.5471  -2.5446  -2.5351  -2.5340  -2.4879  -2.4812
    -2.4760  -2.4529  -2.4178  -2.3285  -2.2916  -2.1501  -2.1350  -1.9514
    -1.7525  -1.7499  -1.7262  -1.5213  -1.5071  -1.4931  -1.4136  -1.4097
    -1.2724  -1.1570  -1.0990  -1.0854  -1.0843  -1.0384  -1.0346  -0.9832
    -0.8899  -0.8816  -0.8800  -0.8580  -0.7815  -0.5836  -0.4871  -0.3821
    -0.2938  -0.1053  -0.0962  -0.0319  -0.0304   0.0097   0.1822   0.1964
     0.3222   0.3380   0.3438   0.3448   0.3505   0.3562   0.3663   0.3903
     0.4055   0.4062   0.4383   0.4610   2.7198   2.7287   2.9682   2.9734
     3.2713   3.9464   4.2394   5.2062   5.8086   6.1851   7.2776   7.3342
     8.7818   9.2216   9.6716   9.8983   9.9772  10.0978  10.1277

          k =-0.5000 0.0777 0.0000 ( 21286 PWs)   bands (ev):

    -2.7739  -2.7689  -2.7678  -2.7650  -2.5968  -2.5795  -2.5210  -2.4903
    -2.3916  -2.2201  -2.1981  -2.1893  -2.1866  -2.1754  -2.0891  -1.9027
    -1.7022  -1.6928  -1.6876  -1.6435  -1.6409  -1.5310  -1.4959  -1.4579
    -1.4161  -1.4112  -1.3274  -1.2518  -1.1637  -0.9368  -0.9131  -0.8845
    -0.8466  -0.8294  -0.8280  -0.7924  -0.5178  -0.4817  -0.3541  -0.2878
    -0.2589  -0.1447  -0.0255  -0.0191   0.0775   0.1178   0.1759   0.1950
     0.2146   0.2482   0.2810   0.3176   0.3342   0.3703   0.3751   0.3946
     0.3987   0.4140   0.4141   0.4193   2.7942   2.8050   3.0117   3.0340
     3.3038   3.9741   4.2616   5.1974   5.7787   6.1717   7.1648   7.2514
     8.5956   8.7033   8.7275   8.9892   9.1273   9.3658   9.4596

          k =-0.5000 0.1554 0.0000 ( 21260 PWs)   bands (ev):

    -2.9010  -2.9002  -2.7142  -2.7004  -2.6561  -2.6378  -2.4944  -2.3826
    -2.3147  -2.2866  -2.1559  -2.0368  -2.0167  -1.9821  -1.9655  -1.9365
    -1.9177  -1.8940  -1.8879  -1.8124  -1.6551  -1.6306  -1.5364  -1.5282
    -1.4033  -1.3760  -1.3242  -1.2960  -1.2820  -0.8518  -0.7861  -0.7361
    -0.7257  -0.6849  -0.6520  -0.6303  -0.4429  -0.2899  -0.2465  -0.2457
    -0.2174  -0.1096  -0.0641  -0.0317   0.0210   0.0487   0.0696   0.0861
     0.0999   0.2339   0.2423   0.3206   0.3212   0.3897   0.4288   0.4309
     0.4492   0.4525   0.4839   0.4853   3.0300   3.0441   3.1741   3.2485
     3.4521   4.0531   4.3155   5.1307   5.5531   5.9804   6.3603   6.4896
     7.9154   8.0296   8.0997   8.4118   8.4453   8.6016   8.8730

          k =-0.5000 0.2331 0.0000 ( 21256 PWs)   bands (ev):

    -2.9000  -2.8992  -2.6891  -2.6866  -2.6065  -2.6014  -2.4513  -2.4108
    -2.3495  -2.2494  -2.2265  -2.1913  -2.1580  -2.1405  -2.1326  -1.9999
    -1.9790  -1.9698  -1.8198  -1.7618  -1.6551  -1.5833  -1.5299  -1.4357
    -1.4155  -1.2403  -1.1791  -1.1051  -1.0189  -0.7992  -0.7680  -0.6338
    -0.6234  -0.5994  -0.5674  -0.4317  -0.4244  -0.3711  -0.3368  -0.3203
    -0.2646  -0.2616  -0.2412  -0.2163  -0.0180   0.0323   0.0625   0.1742
     0.2076   0.2560   0.3035   0.3383   0.3398   0.4431   0.4620   0.4638
     0.4850   0.4853   0.5203   0.5223   3.4790   3.4867   3.5388   3.6704
     3.8066   4.1647   4.3521   4.8486   4.9418   5.2101   5.3526   5.3979
     7.6073   7.6535   7.8335   7.9880   8.2962   8.4039   8.5377

          k =-0.5000-0.3108 0.0000 ( 21304 PWs)   bands (ev):

    -2.7726  -2.7726  -2.7716  -2.7716  -2.5631  -2.5630  -2.5622  -2.5621
    -2.3473  -2.3473  -2.1944  -2.1943  -2.1328  -2.1327  -2.1182  -2.1182
    -1.9510  -1.9510  -1.8383  -1.8383  -1.6028  -1.6028  -1.5790  -1.5789
    -1.0635  -1.0635  -0.9171  -0.9170  -0.8003  -0.8002  -0.7858  -0.7858
    -0.6714  -0.6714  -0.6234  -0.6233  -0.5649  -0.5648  -0.4863  -0.4860
    -0.1722  -0.1722  -0.1579  -0.1578   0.1710   0.1710   0.1729   0.1730
     0.2899   0.2902   0.3593   0.3594   0.3682   0.3682   0.3803   0.3803
     0.4621   0.4621   0.5031   0.5034   4.1017   4.1018   4.1035   4.1035
     4.1886   4.1887   4.1913   4.1913   4.3788   4.3789   4.8096   4.8096
     7.5133   7.5136   7.8400   7.8401   8.3333   8.3334   8.4850

     the Fermi energy is     3.2888 ev

!    total energy              =   -1011.50912931 Ry
     estimated scf accuracy    <       0.00000030 Ry
     smearing contrib. (-TS)   =       0.00045250 Ry
     internal energy E=F+TS    =   -1011.50958180 Ry

     The total energy is F=E-TS. E is the sum of the following terms:
     one-electron contribution =  -14272.38867747 Ry
     hartree contribution      =    7237.78900647 Ry
     xc contribution           =    -267.94034343 Ry
     ewald contribution        =    6291.38534654 Ry
     DFT-D3 Dispersion         =      -0.35491391 Ry

     convergence has been achieved in  11 iterations

     negative rho (up, down):  2.639E-05 0.000E+00

     Forces acting on atoms (cartesian axes, Ry/au):

     atom    1 type  1   force =     0.00000137    0.00000041   -0.00690226
     atom    2 type  1   force =     0.00000015    0.00000172    0.00410859
     atom    3 type  1   force =     0.00000054   -0.00000122   -0.00089695
     atom    4 type  1   force =    -0.00000025    0.00000185   -0.00616792
     atom    5 type  1   force =     0.00000029   -0.00000096    0.00141319
     atom    6 type  1   force =    -0.00000009   -0.00000079   -0.00157379
     atom    7 type  1   force =    -0.00000022    0.00000005    0.00118399
     atom    8 type  1   force =    -0.00000026    0.00000086   -0.00168921
     atom    9 type  1   force =     0.00000018   -0.00000002    0.00612246
     atom   10 type  1   force =    -0.00000178   -0.00000096    0.00106007
     atom   11 type  1   force =     0.00000059   -0.00000053   -0.00377978
     atom   12 type  1   force =    -0.00000051   -0.00000041    0.00712161
     The non-local contrib.  to forces
     atom    1 type  1   force =     0.00000125   -0.00000012    0.10307610
     atom    2 type  1   force =     0.00000048    0.00000176    0.01641620
     atom    3 type  1   force =     0.00000080   -0.00000085    0.02771857
     atom    4 type  1   force =     0.00000023    0.00000176    0.00462957
     atom    5 type  1   force =    -0.00000001   -0.00000088    0.00412239
     atom    6 type  1   force =     0.00000047   -0.00000084   -0.00584787
     atom    7 type  1   force =    -0.00000119   -0.00000005    0.00553914
     atom    8 type  1   force =    -0.00000021    0.00000145   -0.00432537
     atom    9 type  1   force =     0.00000027   -0.00000059   -0.00458071
     atom   10 type  1   force =    -0.00000174   -0.00000000   -0.02751797
     atom   11 type  1   force =     0.00000066   -0.00000053   -0.01609371
     atom   12 type  1   force =    -0.00000065   -0.00000092   -0.10281226
     The ionic contribution  to forces
     atom    1 type  1   force =    -0.00000000   -0.00000000  176.60667803
     atom    2 type  1   force =     0.00000000    0.00000000  159.21000630
     atom    3 type  1   force =    -0.00000000   -0.00000000  112.78985684
     atom    4 type  1   force =    -0.00000000   -0.00000000   90.40866655
     atom    5 type  1   force =    -0.00000000   -0.00000000   45.17328082
     atom    6 type  1   force =     0.00000000   -0.00000000   22.59116058
     atom    7 type  1   force =    -0.00000000   -0.00000000  -22.59116058
     atom    8 type  1   force =    -0.00000000   -0.00000000  -45.17328082
     atom    9 type  1   force =    -0.00000000   -0.00000000  -90.40866655
     atom   10 type  1   force =     0.00000000   -0.00000000 -112.78985684
     atom   11 type  1   force =     0.00000000   -0.00000000 -159.21000630
     atom   12 type  1   force =    -0.00000000   -0.00000000 -176.60667803
     The local contribution  to forces
     atom    1 type  1   force =     0.00000080    0.00000117 -176.70620423
     atom    2 type  1   force =     0.00000032   -0.00000253 -159.21214077
     atom    3 type  1   force =    -0.00000091    0.00000049 -112.81364496
     atom    4 type  1   force =    -0.00000084   -0.00000137  -90.41708709
     atom    5 type  1   force =    -0.00000050    0.00000075  -45.17562624
     atom    6 type  1   force =    -0.00000034   -0.00000069  -22.58664995
     atom    7 type  1   force =     0.00000076   -0.00000046   22.58740116
     atom    8 type  1   force =     0.00000029    0.00000003   45.17624632
     atom    9 type  1   force =     0.00000030   -0.00000113   90.41713829
     atom   10 type  1   force =     0.00000082    0.00000135  112.81332783
     atom   11 type  1   force =    -0.00000040   -0.00000129  159.21126179
     atom   12 type  1   force =    -0.00000055    0.00000173  176.70541120
     The core correction contribution to forces
     atom    1 type  1   force =     0.00000003    0.00000001   -0.00624316
     atom    2 type  1   force =     0.00000002   -0.00000013   -0.00411486
     atom    3 type  1   force =    -0.00000006   -0.00000001   -0.00009300
     atom    4 type  1   force =    -0.00000004   -0.00000004   -0.00005207
     atom    5 type  1   force =    -0.00000005   -0.00000001    0.00006818
     atom    6 type  1   force =    -0.00000002    0.00000000   -0.00001876
     atom    7 type  1   force =     0.00000003   -0.00000005    0.00002262
     atom    8 type  1   force =     0.00000003   -0.00000000   -0.00006479
     atom    9 type  1   force =     0.00000001   -0.00000005    0.00005101
     atom   10 type  1   force =     0.00000008    0.00000006    0.00009102
     atom   11 type  1   force =    -0.00000002   -0.00000000    0.00410593
     atom   12 type  1   force =    -0.00000006    0.00000007    0.00623451
     The Hubbard contrib.    to forces
     atom    1 type  1   force =     0.00000000    0.00000000    0.00000000
     atom    2 type  1   force =     0.00000000    0.00000000    0.00000000
     atom    3 type  1   force =     0.00000000    0.00000000    0.00000000
     atom    4 type  1   force =     0.00000000    0.00000000    0.00000000
     atom    5 type  1   force =     0.00000000    0.00000000    0.00000000
     atom    6 type  1   force =     0.00000000    0.00000000    0.00000000
     atom    7 type  1   force =     0.00000000    0.00000000    0.00000000
     atom    8 type  1   force =     0.00000000    0.00000000    0.00000000
     atom    9 type  1   force =     0.00000000    0.00000000    0.00000000
     atom   10 type  1   force =     0.00000000    0.00000000    0.00000000
     atom   11 type  1   force =     0.00000000    0.00000000    0.00000000
     atom   12 type  1   force =     0.00000000    0.00000000    0.00000000
     The SCF correction term to forces
     atom    1 type  1   force =    -0.00000051   -0.00000057    0.00021796
     atom    2 type  1   force =    -0.00000047    0.00000268   -0.00079978
     atom    3 type  1   force =     0.00000092   -0.00000078   -0.00051819
     atom    4 type  1   force =     0.00000060    0.00000156   -0.00012864
     atom    5 type  1   force =     0.00000000   -0.00000000    0.00000000
     atom    6 type  1   force =    -0.00000000    0.00000000    0.00000000
     atom    7 type  1   force =     0.00000000    0.00000000   -0.00000000
     atom    8 type  1   force =    -0.00000000   -0.00000000   -0.00000000
     atom    9 type  1   force =    -0.00000000    0.00000000    0.00000000
     atom   10 type  1   force =    -0.00000000   -0.00000000    0.00000000
     atom   11 type  1   force =     0.00000000    0.00000000    0.00000000
     atom   12 type  1   force =     0.00000000   -0.00000000    0.00000000

     DFT-D3 dispersion contribution to forces:
     atom    1 type  1   force =     0.00000000   -0.00000000   -0.00439155
     atom    2 type  1   force =    -0.00000000    0.00000000   -0.00522309
     atom    3 type  1   force =    -0.00000000   -0.00000000   -0.00418080
     atom    4 type  1   force =    -0.00000000    0.00000000   -0.00216084
     atom    5 type  1   force =     0.00000000   -0.00000000   -0.00046733
     atom    6 type  1   force =    -0.00000000    0.00000000   -0.00019228
     atom    7 type  1   force =    -0.00000000   -0.00000000    0.00019228
     atom    8 type  1   force =     0.00000000    0.00000000    0.00046733
     atom    9 type  1   force =     0.00000000   -0.00000000    0.00216084
     atom   10 type  1   force =    -0.00000000    0.00000000    0.00418080
     atom   11 type  1   force =     0.00000000   -0.00000000    0.00522309
     atom   12 type  1   force =    -0.00000000    0.00000000    0.00439155

     Total force =     0.010167     Total SCF correction =     0.000986


     Computing stress (Cartesian axis) and pressure


     negative rho (up, down):  2.639E-05 0.000E+00
          total   stress  (Ry/bohr**3)                   (kbar)     P=      -18.27
  -0.00014553   0.00000000   0.00000000          -21.41        0.00        0.00
   0.00000000  -0.00010890  -0.00000000            0.00      -16.02       -0.00
   0.00000000  -0.00000000  -0.00011807            0.00       -0.00      -17.37


     BFGS Geometry Optimization
     Energy error            =      0.0E+00 Ry
     Gradient error          =      6.9E-03 Ry/Bohr

     number of scf cycles    =   1
     number of bfgs steps    =   0

     energy             new  =   -1011.5091293087 Ry

     new trust radius        =       0.0069022570 bohr
     new conv_thr            =       0.0000010000 Ry


ATOMIC_POSITIONS (angstrom)
Ag            0.7305755085        3.5262465769       23.4938690440
Ag            2.1917244357        1.1754163611       22.6561006344
Ag            2.1917246425        3.5262457116       20.9662616236
Ag            0.7305746519        1.1754164310       20.1198772458
Ag            0.7305747850        3.5262463575       18.4359509757    0   0   0
Ag            2.1917243550        1.1754154525       17.5923558781    0   0   0
Ag            2.1917243550        3.5262463575       15.9051656830    0   0   0
Ag            0.7305747850        1.1754154525       15.0615705854    0   0   0
Ag            0.7305747850        3.5262463575       13.3743803903    0   0   0
Ag            2.1917243550        1.1754154525       12.5307852927    0   0   0
Ag            2.1917243550        3.5262463575       10.8435950976    0   0   0
Ag            0.7305747850        1.1754154525       10.0000000000    0   0   0



     Writing config-only to output data dir ./Ag_100/Ag_100.save/
     NEW-OLD atomic charge density approx. for the potential

     negative rho (up, down):  2.630E-05 0.000E+00

     total cpu time spent up to now is       52.0 secs

     per-process dynamical memory:   201.4 Mb

     Self-consistent Calculation

     iteration #  1     ecut=    55.00 Ry     beta= 0.30
     Davidson diagonalization with overlap
     ethr =  1.00E-06,  avg # of iterations =  3.0

     Threshold (ethr) on eigenvalues was too large:
     Diagonalizing with lowered threshold

     Davidson diagonalization with overlap
     ethr =  2.19E-08,  avg # of iterations =  3.1

     negative rho (up, down):  2.631E-05 0.000E+00

     total cpu time spent up to now is       57.6 secs

     total energy              =   -1011.50921408 Ry
     estimated scf accuracy    <       0.00003154 Ry

     iteration #  2     ecut=    55.00 Ry     beta= 0.30
     Davidson diagonalization with overlap
     ethr =  2.39E-08,  avg # of iterations =  2.5

     negative rho (up, down):  2.633E-05 0.000E+00

     total cpu time spent up to now is       59.6 secs

     total energy              =   -1011.50915810 Ry
     estimated scf accuracy    <       0.00271932 Ry

     iteration #  3     ecut=    55.00 Ry     beta= 0.30
     Davidson diagonalization with overlap
     ethr =  2.39E-08,  avg # of iterations =  2.0

     negative rho (up, down):  2.636E-05 0.000E+00

     total cpu time spent up to now is       61.1 secs

     total energy              =   -1011.50921814 Ry
     estimated scf accuracy    <       0.00034344 Ry

     iteration #  4     ecut=    55.00 Ry     beta= 0.30
     Davidson diagonalization with overlap
     ethr =  2.39E-08,  avg # of iterations =  1.1

     negative rho (up, down):  2.636E-05 0.000E+00

     total cpu time spent up to now is       62.6 secs

     total energy              =   -1011.50922845 Ry
     estimated scf accuracy    <       0.00000606 Ry

     iteration #  5     ecut=    55.00 Ry     beta= 0.30
     Davidson diagonalization with overlap
     ethr =  4.59E-09,  avg # of iterations =  1.5

     negative rho (up, down):  2.633E-05 0.000E+00

     total cpu time spent up to now is       63.9 secs

     End of self-consistent calculation

          k = 0.0000 0.0000 0.0000 ( 21445 PWs)   bands (ev):

    -4.2121  -3.7482  -3.1062  -2.8842  -2.8545  -2.7281  -2.6467  -2.6054
    -2.5279  -2.5205  -2.4866  -2.3469  -2.2954  -2.2228  -1.8016  -1.5764
    -1.5583  -1.4502  -1.3532  -1.3506  -1.3199  -1.3173  -1.2475  -1.2025
    -1.1835  -1.1799  -1.1056  -1.0958  -1.0428  -1.0297  -1.0218  -1.0181
    -1.0010  -0.9873  -0.9621  -0.9185  -0.8990  -0.8652  -0.8232  -0.8132
    -0.7913  -0.7456  -0.6641  -0.6207  -0.6068  -0.5985  -0.5535  -0.4595
    -0.3840  -0.3369  -0.1938  -0.1134   0.0510   0.0769   0.1511   0.1554
     0.2483   0.3002   0.3005   0.3676   0.3920   0.4186   0.5389   0.5411
     1.0382   2.4307   3.3837   3.4774   4.2865   5.4983   5.8528   6.8616
     7.0144   7.0229   7.1812   7.4824   7.6951   7.7307   8.0700

          k = 0.0000 0.0777 0.0000 ( 21497 PWs)   bands (ev):

    -4.0905  -3.6361  -3.0368  -2.8551  -2.8196  -2.8007  -2.6743  -2.6247
    -2.5782  -2.5569  -2.3617  -2.2923  -2.1982  -2.0283  -1.7243  -1.5841
    -1.5833  -1.4702  -1.4558  -1.3938  -1.3632  -1.3503  -1.3307  -1.3123
    -1.2888  -1.2598  -1.2218  -1.1772  -1.1511  -1.1212  -1.0986  -1.0680
    -1.0208  -1.0010  -0.9329  -0.8207  -0.8089  -0.7981  -0.7692  -0.7371
    -0.7289  -0.7049  -0.5611  -0.5436  -0.5331  -0.4786  -0.4036  -0.3627
    -0.3310  -0.1882  -0.1498  -0.1385   0.0413   0.0909   0.1205   0.1480
     0.2357   0.2436   0.2858   0.3388   0.3854   0.3925   0.5012   0.5059
     1.0573   2.4834   2.6242   3.3884   3.5762   4.4500   5.5555   5.8378
     6.7004   6.9372   7.7397   7.8056   8.0300   8.2282   8.3585

          k = 0.0000 0.1554 0.0000 ( 21465 PWs)   bands (ev):

    -3.7424  -3.3195  -2.9268  -2.8892  -2.7763  -2.7343  -2.6266  -2.6198
    -2.4871  -2.4725  -2.2832  -2.2138  -1.9981  -1.9409  -1.8746  -1.8386
    -1.6740  -1.6134  -1.5075  -1.5017  -1.4603  -1.4231  -1.4092  -1.3640
    -1.3340  -1.2526  -1.2523  -1.2355  -1.1931  -1.1688  -1.1357  -1.0614
    -1.0101  -0.9864  -0.8866  -0.8401  -0.8257  -0.7298  -0.6603  -0.5759
    -0.5369  -0.5311  -0.4913  -0.4292  -0.3817  -0.3646  -0.2815  -0.2148
    -0.1677  -0.0994  -0.0761   0.0046   0.0049   0.0390   0.1441   0.1604
     0.1865   0.2166   0.2635   0.2739   0.3597   0.3622   0.4159   0.4342
     1.1731   1.2998   2.0704   2.6981   3.0259   3.7340   4.0194   5.0122
     5.9502   6.2012   7.8007   8.0529   8.3248   8.9370   9.2825

          k = 0.0000 0.2331 0.0000 ( 21389 PWs)   bands (ev):

    -3.2430  -2.9351  -2.8654  -2.7844  -2.7090  -2.6610  -2.5735  -2.4890
    -2.3721  -2.3661  -2.2140  -2.1418  -2.1354  -2.0864  -2.0113  -1.9072
    -1.8746  -1.7142  -1.6328  -1.5917  -1.4848  -1.4775  -1.4303  -1.4168
    -1.3787  -1.3442  -1.2960  -1.2553  -1.1826  -1.0688  -0.9786  -0.9706
    -0.9272  -0.8761  -0.8637  -0.8466  -0.8157  -0.6386  -0.5966  -0.5940
    -0.4152  -0.4018  -0.3027  -0.2898  -0.2789  -0.2771  -0.2593  -0.1968
    -0.1876  -0.0991  -0.0304  -0.0146   0.0800   0.0961   0.1216   0.1639
     0.1765   0.1769   0.2911   0.2968   0.3093   0.3761   0.3782   0.3893
     0.5567   0.9548   1.6427   1.7054   2.5987   3.1739   3.6582   4.0394
     5.3059   5.7135   8.1726   8.2452   8.8032   8.8427   9.0162

          k = 0.0000-0.3108 0.0000 ( 21400 PWs)   bands (ev):

    -2.8193  -2.8191  -2.8044  -2.8042  -2.6439  -2.6438  -2.4968  -2.4951
    -2.3648  -2.3638  -2.1531  -2.1528  -2.0818  -2.0816  -2.0230  -2.0202
    -1.8510  -1.8501  -1.7181  -1.7174  -1.5540  -1.5540  -1.4110  -1.4105
    -1.3372  -1.3371  -1.1805  -1.1801  -1.1381  -1.1355  -1.0752  -1.0739
    -0.8728  -0.8700  -0.7736  -0.7718  -0.6866  -0.6865  -0.6376  -0.6371
    -0.4530  -0.4505  -0.4485  -0.4470  -0.0889  -0.0883  -0.0827  -0.0825
    -0.0769  -0.0764  -0.0204  -0.0181  -0.0095  -0.0084   0.1136   0.1139
     0.1875   0.1890   0.2670   0.2687   0.2850   0.2862   0.3751   0.3757
     0.7401   0.7413   1.4417   1.4420   2.5067   2.5069   3.7566   3.7576
     5.2717   5.2755   8.3870   8.3877   8.9522   8.9529   9.4380

          k = 0.1250-0.0000 0.0000 ( 21499 PWs)   bands (ev):

    -3.9084  -3.4636  -2.8422  -2.7243  -2.6512  -2.5094  -2.5044  -2.4802
    -2.4241  -2.3525  -2.3324  -2.2433  -2.1658  -2.0829  -1.8669  -1.7421
    -1.6867  -1.5225  -1.4900  -1.4497  -1.4143  -1.3904  -1.3162  -1.1877
    -1.1822  -1.1801  -1.1370  -1.1263  -1.1094  -1.0733  -1.0601  -1.0191
    -1.0163  -1.0034  -0.9556  -0.9314  -0.9234  -0.9043  -0.8838  -0.8551
    -0.7778  -0.7573  -0.7382  -0.6790  -0.6094  -0.6091  -0.5495  -0.4818
    -0.4473  -0.2985  -0.1627  -0.1012  -0.0117   0.0448   0.0629   0.1406
     0.2933   0.2940   0.2989   0.3310   0.3603   0.4577   0.4617   0.4766
     1.4718   2.8359   3.9573   4.1625   4.9277   6.0285   6.1354   7.1053
     7.2794   7.3017   7.3187   7.6481   7.9602   8.0121   8.2686

          k = 0.1250 0.0777 0.0000 ( 21491 PWs)   bands (ev):

    -3.7928  -3.3608  -2.7851  -2.6896  -2.6617  -2.6132  -2.4775  -2.4659
    -2.4473  -2.3871  -2.1733  -2.1440  -2.0617  -2.0048  -1.8294  -1.7738
    -1.6942  -1.6180  -1.5282  -1.5259  -1.4471  -1.4395  -1.3551  -1.3047
    -1.2600  -1.2440  -1.1990  -1.1648  -1.1214  -1.1106  -1.0754  -1.0526
    -1.0321  -1.0206  -0.8955  -0.8800  -0.8399  -0.8269  -0.8038  -0.7601
    -0.7472  -0.7302  -0.7170  -0.6550  -0.5612  -0.5501  -0.4886  -0.4110
    -0.3997  -0.2172  -0.1539  -0.1246  -0.0111   0.0238   0.0883   0.1426
     0.2105   0.2519   0.2922   0.3085   0.3190   0.3951   0.4069   0.5573
     1.5320   2.9124   3.3153   3.9174   4.1023   4.8810   5.9391   6.1668
     7.0630   7.2611   8.0353   8.0766   8.2013   8.4588   8.6182

          k = 0.1250 0.1554 0.0000 ( 21468 PWs)   bands (ev):

    -3.4628  -3.0729  -2.7755  -2.6837  -2.5933  -2.5246  -2.4571  -2.4196
    -2.3486  -2.2982  -2.0890  -2.0777  -1.9898  -1.9244  -1.8423  -1.7398
    -1.7211  -1.7058  -1.6141  -1.5423  -1.4746  -1.4613  -1.4205  -1.4200
    -1.4141  -1.3775  -1.3073  -1.2496  -1.2076  -1.1926  -1.1242  -1.0814
    -1.0421  -1.0252  -0.9788  -0.9051  -0.7845  -0.7572  -0.7410  -0.6947
    -0.6486  -0.5482  -0.5180  -0.4305  -0.4198  -0.3928  -0.3023  -0.2984
    -0.2395  -0.1772  -0.1546  -0.0637  -0.0586  -0.0372  -0.0006   0.0248
     0.1640   0.1822   0.2377   0.2592   0.2731   0.3438   0.4114   0.6906
     1.7282   1.9925   2.5678   3.1159   3.4513   4.2333   4.4879   5.4519
     6.2915   6.5959   8.0546   8.3372   8.5774   9.1802   9.5323

          k = 0.1250 0.2331 0.0000 ( 21413 PWs)   bands (ev):

    -2.9883  -2.7714  -2.6685  -2.6228  -2.4919  -2.4482  -2.4015  -2.3547
    -2.2363  -2.2000  -2.1804  -2.1088  -1.9652  -1.9045  -1.8591  -1.8360
    -1.7189  -1.7046  -1.6425  -1.6383  -1.5349  -1.5297  -1.4657  -1.4577
    -1.3993  -1.3779  -1.3132  -1.2720  -1.2235  -1.1861  -1.1467  -1.1314
    -1.1133  -1.0317  -0.9661  -0.9504  -0.8827  -0.8243  -0.7509  -0.6610
    -0.4803  -0.4662  -0.4622  -0.4202  -0.3488  -0.3000  -0.2859  -0.2025
    -0.1697  -0.1635  -0.0572  -0.0445   0.0080   0.0278   0.1085   0.1120
     0.1375   0.1693   0.2125   0.2592   0.3694   0.3779   0.4371   0.9121
     1.0598   1.3768   2.0635   2.1868   2.9860   3.6469   4.1204   4.7101
     5.6604   6.1677   8.3963   8.4995   9.0564   9.0813   9.2653

          k = 0.1250-0.3108 0.0000 ( 21356 PWs)   bands (ev):

    -2.6412  -2.6411  -2.5737  -2.5735  -2.5058  -2.5053  -2.3258  -2.3255
    -2.2530  -2.2513  -2.0317  -2.0316  -1.9310  -1.9304  -1.9061  -1.9044
    -1.7554  -1.7553  -1.7040  -1.7009  -1.6261  -1.6256  -1.4418  -1.4395
    -1.3452  -1.3451  -1.3037  -1.3027  -1.2258  -1.2255  -1.1094  -1.1065
    -1.0076  -1.0063  -0.9096  -0.9065  -0.8512  -0.8509  -0.7991  -0.7987
    -0.6227  -0.6226  -0.5371  -0.5348  -0.3291  -0.3275  -0.1891  -0.1869
    -0.0858  -0.0849  -0.0394  -0.0388   0.0907   0.0909   0.2138   0.2140
     0.2773   0.2776   0.3308   0.3313   0.3604   0.3612   0.5492   0.5499
     1.0302   1.0304   1.8330   1.8331   2.9939   2.9945   4.3137   4.3139
     5.7298   5.7333   8.5928   8.5935   9.2115   9.2123   9.7093

          k = 0.1250-0.2331 0.0000 ( 21413 PWs)   bands (ev):

    -2.9883  -2.7714  -2.6685  -2.6228  -2.4919  -2.4482  -2.4015  -2.3547
    -2.2363  -2.2000  -2.1804  -2.1088  -1.9652  -1.9045  -1.8591  -1.8360
    -1.7189  -1.7046  -1.6425  -1.6383  -1.5349  -1.5297  -1.4657  -1.4577
    -1.3993  -1.3779  -1.3132  -1.2720  -1.2235  -1.1861  -1.1467  -1.1314
    -1.1133  -1.0317  -0.9661  -0.9504  -0.8827  -0.8243  -0.7509  -0.6610
    -0.4803  -0.4662  -0.4622  -0.4202  -0.3488  -0.3000  -0.2859  -0.2025
    -0.1697  -0.1635  -0.0572  -0.0445   0.0080   0.0278   0.1085   0.1120
     0.1375   0.1693   0.2125   0.2592   0.3694   0.3779   0.4371   0.9121
     1.0598   1.3768   2.0635   2.1868   2.9860   3.6469   4.1204   4.7101
     5.6604   6.1677   8.3963   8.4995   9.0564   9.0813   9.2653

          k = 0.1250-0.1554 0.0000 ( 21468 PWs)   bands (ev):

    -3.4628  -3.0729  -2.7755  -2.6837  -2.5933  -2.5246  -2.4571  -2.4196
    -2.3486  -2.2982  -2.0890  -2.0777  -1.9898  -1.9244  -1.8423  -1.7398
    -1.7211  -1.7058  -1.6141  -1.5423  -1.4746  -1.4613  -1.4205  -1.4200
    -1.4141  -1.3775  -1.3073  -1.2496  -1.2076  -1.1926  -1.1242  -1.0814
    -1.0421  -1.0252  -0.9788  -0.9051  -0.7845  -0.7572  -0.7410  -0.6947
    -0.6486  -0.5482  -0.5180  -0.4305  -0.4198  -0.3928  -0.3023  -0.2984
    -0.2395  -0.1772  -0.1546  -0.0637  -0.0586  -0.0372  -0.0006   0.0248
     0.1640   0.1822   0.2377   0.2592   0.2731   0.3438   0.4114   0.6906
     1.7282   1.9925   2.5678   3.1159   3.4513   4.2333   4.4879   5.4519
     6.2915   6.5959   8.0546   8.3372   8.5774   9.1802   9.5323

          k = 0.1250-0.0777 0.0000 ( 21491 PWs)   bands (ev):

    -3.7928  -3.3608  -2.7851  -2.6896  -2.6617  -2.6132  -2.4775  -2.4659
    -2.4473  -2.3871  -2.1733  -2.1440  -2.0617  -2.0048  -1.8294  -1.7738
    -1.6942  -1.6180  -1.5282  -1.5259  -1.4471  -1.4395  -1.3551  -1.3047
    -1.2600  -1.2440  -1.1990  -1.1648  -1.1214  -1.1106  -1.0754  -1.0526
    -1.0321  -1.0206  -0.8955  -0.8800  -0.8399  -0.8269  -0.8038  -0.7601
    -0.7472  -0.7302  -0.7170  -0.6550  -0.5612  -0.5501  -0.4886  -0.4110
    -0.3997  -0.2172  -0.1539  -0.1246  -0.0111   0.0238   0.0883   0.1426
     0.2105   0.2519   0.2922   0.3085   0.3190   0.3951   0.4069   0.5573
     1.5320   2.9124   3.3153   3.9174   4.1023   4.8810   5.9391   6.1668
     7.0630   7.2611   8.0353   8.0766   8.2013   8.4588   8.6182

          k = 0.2500-0.0000 0.0000 ( 21417 PWs)   bands (ev):

    -3.1340  -2.8413  -2.5002  -2.4890  -2.4822  -2.4352  -2.3502  -2.3379
    -2.2426  -2.2081  -2.1824  -2.1194  -2.1119  -1.8696  -1.7569  -1.7088
    -1.6643  -1.6448  -1.6133  -1.5316  -1.5044  -1.4961  -1.4738  -1.4637
    -1.4056  -1.3327  -1.2629  -1.2474  -1.2181  -1.1681  -1.1534  -1.0784
    -1.0608  -0.9719  -0.9653  -0.8903  -0.8096  -0.7946  -0.7671  -0.7352
    -0.7120  -0.7044  -0.5877  -0.4613  -0.4087  -0.4039  -0.3763  -0.3677
    -0.2858  -0.1485  -0.1305  -0.0518  -0.0416   0.0688   0.0809   0.2786
     0.2887   0.2931   0.3126   0.3306   0.3438   0.4163   0.4261   1.1733
     2.3685   3.7938   5.1606   5.8526   6.4481   6.9131   7.3685   7.4235
     7.6455   8.0752   8.1105   8.5123   8.5911   8.7596   8.7901

          k = 0.2500 0.0777 0.0000 ( 21426 PWs)   bands (ev):

    -3.0603  -2.8097  -2.5115  -2.4914  -2.4446  -2.4119  -2.3317  -2.2991
    -2.2739  -2.2133  -2.1122  -2.0834  -1.9951  -1.8405  -1.8202  -1.7974
    -1.7281  -1.6973  -1.6923  -1.6126  -1.5118  -1.4904  -1.3767  -1.3533
    -1.3483  -1.3139  -1.2759  -1.2015  -1.1810  -1.1782  -1.1718  -1.1135
    -1.0533  -0.9925  -0.9492  -0.8926  -0.8183  -0.7930  -0.7877  -0.7329
    -0.5954  -0.5939  -0.5268  -0.4466  -0.4330  -0.3986  -0.3823  -0.3678
    -0.2817  -0.1330  -0.1226  -0.0425  -0.0188   0.0997   0.1066   0.1658
     0.2056   0.2107   0.3155   0.3361   0.3550   0.3697   0.4072   1.2320
     2.4493   3.8873   4.6859   5.1136   5.3393   5.9084   6.8980   7.0229
     7.9905   8.1025   8.7139   8.8007   8.8786   8.9456   9.1277

          k = 0.2500 0.1554 0.0000 ( 21427 PWs)   bands (ev):

    -2.8627  -2.7216  -2.5383  -2.4715  -2.3490  -2.3309  -2.3128  -2.2906
    -2.1737  -2.1707  -2.0440  -1.9934  -1.9591  -1.9449  -1.8554  -1.8540
    -1.7334  -1.7100  -1.6290  -1.5949  -1.5313  -1.5196  -1.4384  -1.4300
    -1.3476  -1.3445  -1.2788  -1.2524  -1.1243  -1.1125  -1.1009  -1.0808
    -1.0408  -0.9835  -0.9179  -0.9026  -0.7980  -0.7606  -0.7271  -0.6778
    -0.6124  -0.5455  -0.4300  -0.4137  -0.3708  -0.3474  -0.3119  -0.2500
    -0.1761  -0.1521  -0.1038  -0.0817  -0.0311  -0.0217  -0.0007   0.1101
     0.1932   0.2025   0.2161   0.2690   0.4053   0.4113   0.4791   1.4266
     2.6947   3.1869   3.6209   4.0804   4.4409   5.2186   5.7804   6.4755
     7.2357   7.6043   8.7964   9.1750   9.2798   9.3451   9.7627

          k = 0.2500 0.2331 0.0000 ( 21410 PWs)   bands (ev):

    -2.6120  -2.5890  -2.4841  -2.4341  -2.3720  -2.3589  -2.2518  -2.2308
    -2.1550  -2.1399  -2.0329  -2.0065  -1.9521  -1.9016  -1.8415  -1.8384
    -1.6799  -1.6588  -1.6562  -1.6183  -1.5486  -1.5322  -1.4629  -1.4503
    -1.3558  -1.3022  -1.2815  -1.2540  -1.0675  -1.0463  -1.0392  -1.0101
    -0.9922  -0.9623  -0.9219  -0.8985  -0.8144  -0.7906  -0.7798  -0.7423
    -0.6444  -0.6123  -0.5395  -0.4780  -0.4132  -0.3993  -0.3819  -0.3394
    -0.1739  -0.1549  -0.0001   0.0050   0.0775   0.1129   0.1653   0.1890
     0.2264   0.2643   0.3140   0.3935   0.4295   0.4708   0.8879   1.8137
     1.9581   2.2573   2.9304   3.1754   3.9358   4.6715   5.2060   6.2273
     6.5704   7.3673   9.0702   9.2564   9.8191   9.8337   9.9046

          k = 0.2500-0.3108 0.0000 ( 21358 PWs)   bands (ev):

    -2.4424  -2.4415  -2.4293  -2.4285  -2.3724  -2.3720  -2.3231  -2.3208
    -2.2233  -2.2222  -1.8999  -1.8998  -1.8564  -1.8555  -1.7872  -1.7865
    -1.7577  -1.7566  -1.7465  -1.7454  -1.5626  -1.5578  -1.3953  -1.3897
    -1.2191  -1.2159  -1.2034  -1.2032  -1.1066  -1.1061  -1.0103  -1.0081
    -0.9404  -0.9391  -0.8753  -0.8748  -0.8385  -0.8381  -0.8002  -0.7994
    -0.6965  -0.6964  -0.6344  -0.6336  -0.4961  -0.4959  -0.4370  -0.4341
    -0.0697  -0.0688  -0.0334  -0.0330   0.1181   0.1181   0.2872   0.2888
     0.3507   0.3511   0.3812   0.3823   0.8999   0.9000   1.1647   1.1658
     1.7461   1.7469   2.7265   2.7273   4.0355   4.0372   5.5113   5.5123
     6.9714   6.9742   9.2266   9.2275   9.9971   9.9979  10.5219

          k = 0.2500-0.2331 0.0000 ( 21410 PWs)   bands (ev):

    -2.6120  -2.5890  -2.4841  -2.4341  -2.3720  -2.3589  -2.2518  -2.2308
    -2.1550  -2.1399  -2.0329  -2.0065  -1.9521  -1.9016  -1.8415  -1.8384
    -1.6799  -1.6588  -1.6562  -1.6183  -1.5486  -1.5322  -1.4629  -1.4503
    -1.3558  -1.3022  -1.2815  -1.2540  -1.0675  -1.0463  -1.0392  -1.0101
    -0.9922  -0.9623  -0.9219  -0.8985  -0.8144  -0.7906  -0.7798  -0.7423
    -0.6444  -0.6123  -0.5395  -0.4780  -0.4132  -0.3993  -0.3819  -0.3394
    -0.1739  -0.1549  -0.0001   0.0050   0.0775   0.1129   0.1653   0.1890
     0.2264   0.2643   0.3140   0.3935   0.4295   0.4708   0.8879   1.8137
     1.9581   2.2573   2.9304   3.1754   3.9358   4.6715   5.2060   6.2273
     6.5704   7.3673   9.0702   9.2564   9.8190   9.8337   9.9040

          k = 0.2500-0.1554 0.0000 ( 21427 PWs)   bands (ev):

    -2.8627  -2.7216  -2.5383  -2.4715  -2.3490  -2.3309  -2.3128  -2.2906
    -2.1737  -2.1707  -2.0440  -1.9934  -1.9591  -1.9449  -1.8554  -1.8540
    -1.7334  -1.7100  -1.6290  -1.5949  -1.5313  -1.5196  -1.4384  -1.4300
    -1.3476  -1.3445  -1.2788  -1.2524  -1.1243  -1.1125  -1.1009  -1.0808
    -1.0408  -0.9835  -0.9179  -0.9026  -0.7980  -0.7606  -0.7271  -0.6778
    -0.6124  -0.5455  -0.4300  -0.4137  -0.3708  -0.3474  -0.3119  -0.2500
    -0.1761  -0.1521  -0.1038  -0.0817  -0.0311  -0.0217  -0.0007   0.1101
     0.1932   0.2025   0.2161   0.2690   0.4053   0.4113   0.4791   1.4266
     2.6947   3.1869   3.6209   4.0804   4.4409   5.2186   5.7804   6.4755
     7.2357   7.6043   8.7964   9.1750   9.2798   9.3451   9.7627

          k = 0.2500-0.0777 0.0000 ( 21426 PWs)   bands (ev):

    -3.0603  -2.8097  -2.5115  -2.4914  -2.4446  -2.4119  -2.3317  -2.2991
    -2.2739  -2.2133  -2.1122  -2.0834  -1.9951  -1.8405  -1.8202  -1.7974
    -1.7281  -1.6973  -1.6923  -1.6126  -1.5118  -1.4904  -1.3767  -1.3533
    -1.3483  -1.3139  -1.2759  -1.2015  -1.1810  -1.1782  -1.1718  -1.1135
    -1.0533  -0.9925  -0.9492  -0.8926  -0.8183  -0.7930  -0.7877  -0.7329
    -0.5954  -0.5939  -0.5268  -0.4466  -0.4330  -0.3986  -0.3823  -0.3678
    -0.2817  -0.1330  -0.1226  -0.0425  -0.0188   0.0997   0.1066   0.1658
     0.2056   0.2107   0.3155   0.3361   0.3550   0.3697   0.4072   1.2320
     2.4493   3.8873   4.6859   5.1136   5.3393   5.9084   6.8980   7.0229
     7.9905   8.1025   8.7139   8.8007   8.8786   8.9456   9.1277

          k = 0.3750-0.0000 0.0000 ( 21365 PWs)   bands (ev):

    -2.7112  -2.7025  -2.5433  -2.5034  -2.5003  -2.4902  -2.4554  -2.4325
    -2.4024  -2.3703  -2.2754  -2.2367  -2.1484  -2.1284  -2.1072  -1.9033
    -1.6713  -1.6413  -1.6319  -1.4856  -1.4726  -1.4311  -1.4199  -1.3583
    -1.3471  -1.3040  -1.2213  -1.1756  -1.1140  -1.0617  -1.0492  -1.0282
    -1.0030  -0.9575  -0.9003  -0.8910  -0.8397  -0.7686  -0.7105  -0.4936
    -0.3930  -0.3281  -0.1704  -0.0429  -0.0418  -0.0374  -0.0082   0.0946
     0.1040   0.1267   0.1832   0.1993   0.2189   0.2809   0.2996   0.3121
     0.3516   0.3673   0.4399   0.4417   0.7483   0.8946   1.4205   2.4097
     3.6859   5.1084   5.4464   5.9828   6.6051   6.8910   7.5325   7.9390
     8.1689   8.2151   8.2349   8.3920   9.0479   9.1234   9.2470

          k = 0.3750 0.0777 0.0000 ( 21373 PWs)   bands (ev):

    -2.7194  -2.7160  -2.6323  -2.6297  -2.5575  -2.5411  -2.4377  -2.3922
    -2.3125  -2.2874  -2.1306  -2.1219  -2.1053  -2.0641  -2.0206  -1.8895
    -1.7223  -1.6169  -1.6055  -1.5853  -1.5382  -1.4992  -1.4873  -1.4557
    -1.4101  -1.3822  -1.3308  -1.3002  -1.1145  -1.0959  -1.0674  -1.0300
    -0.9285  -0.9263  -0.7979  -0.7570  -0.7250  -0.5486  -0.5271  -0.5034
    -0.3492  -0.2333  -0.1287  -0.0563  -0.0338  -0.0029   0.0474   0.1032
     0.1054   0.1253   0.1494   0.1641   0.2157   0.2416   0.2623   0.2647
     0.3363   0.3416   0.3696   0.3738   0.8043   0.9033   1.4316   2.4591
     3.7622   5.2034   5.5467   6.0035   6.2724   6.4318   6.6565   6.9428
     7.0670   8.1587   8.4804   8.5960   9.0821   9.6086   9.6586

          k = 0.3750 0.1554 0.0000 ( 21345 PWs)   bands (ev):

    -2.8133  -2.8084  -2.6314  -2.6135  -2.5330  -2.5278  -2.3738  -2.3345
    -2.2591  -2.2084  -2.1061  -2.0068  -1.9846  -1.9656  -1.9312  -1.9114
    -1.8660  -1.8631  -1.8003  -1.7471  -1.5955  -1.5766  -1.5276  -1.4945
    -1.4084  -1.3494  -1.2561  -1.2262  -1.1581  -1.0523  -1.0490  -0.8923
    -0.7857  -0.7410  -0.6696  -0.6624  -0.6564  -0.4644  -0.4152  -0.3047
    -0.2352  -0.1887  -0.1339  -0.0903  -0.0286  -0.0261  -0.0071   0.0303
     0.0435   0.1092   0.1179   0.1432   0.1775   0.1847   0.2386   0.2562
     0.3145   0.3493   0.3933   0.4227   0.9402   1.0055   1.5653   2.6537
     3.9900   4.6643   4.9543   5.3318   5.5503   5.7875   6.0596   6.2105
     7.4044   8.0460   8.1926   8.6224   8.8219   9.2511   9.7743

          k = 0.3750 0.2331 0.0000 ( 21344 PWs)   bands (ev):

    -2.8011  -2.7966  -2.5997  -2.5953  -2.4876  -2.4814  -2.3730  -2.3115
    -2.2362  -2.1983  -2.1752  -2.1286  -2.1058  -2.0809  -2.0107  -1.9832
    -1.8830  -1.8810  -1.7321  -1.7208  -1.6140  -1.6079  -1.5216  -1.4560
    -1.3204  -1.2516  -1.1297  -1.0626  -1.0468  -0.9930  -0.9452  -0.7774
    -0.7083  -0.6872  -0.6298  -0.5559  -0.5193  -0.4428  -0.4167  -0.3810
    -0.3714  -0.3630  -0.3169  -0.2277  -0.1708  -0.1580   0.0526   0.0735
     0.1129   0.1347   0.1948   0.2056   0.2110   0.2384   0.2631   0.2690
     0.3438   0.3600   0.4078   0.4423   1.3098   1.4685   2.0494   3.0624
     3.2801   3.5313   4.1275   4.3520   5.0634   5.6247   6.1838   6.2125
     7.8547   7.9297   8.3531   8.5540   8.6734   9.0249   9.2195

          k = 0.3750-0.3108 0.0000 ( 21340 PWs)   bands (ev):

    -2.6726  -2.6724  -2.6660  -2.6658  -2.4924  -2.4923  -2.4545  -2.4542
    -2.2042  -2.2042  -2.1562  -2.1534  -2.0490  -2.0487  -2.0333  -2.0332
    -1.8798  -1.8793  -1.7879  -1.7849  -1.5678  -1.5644  -1.5091  -1.5037
    -1.2033  -1.1999  -1.0109  -1.0106  -0.8698  -0.8687  -0.7693  -0.7683
    -0.7404  -0.7400  -0.6757  -0.6757  -0.5906  -0.5889  -0.5422  -0.5411
    -0.3557  -0.3554  -0.3153  -0.3146  -0.0505  -0.0488   0.0629   0.0633
     0.1220   0.1231   0.2047   0.2055   0.2736   0.2742   0.3082   0.3086
     0.3339   0.3348   0.3664   0.3675   2.1082   2.1082   2.3357   2.3371
     2.9152   2.9168   3.8971   3.8978   5.1504   5.1522   6.3784   6.3791
     7.9582   7.9601   8.4129   8.4134   8.8508   8.8515   9.0649

          k = 0.3750-0.2331 0.0000 ( 21344 PWs)   bands (ev):

    -2.8011  -2.7966  -2.5997  -2.5953  -2.4876  -2.4814  -2.3730  -2.3115
    -2.2362  -2.1983  -2.1752  -2.1286  -2.1058  -2.0809  -2.0107  -1.9832
    -1.8830  -1.8810  -1.7321  -1.7208  -1.6140  -1.6079  -1.5216  -1.4560
    -1.3204  -1.2516  -1.1297  -1.0626  -1.0468  -0.9930  -0.9452  -0.7774
    -0.7083  -0.6872  -0.6298  -0.5559  -0.5193  -0.4428  -0.4167  -0.3810
    -0.3714  -0.3630  -0.3169  -0.2277  -0.1708  -0.1580   0.0526   0.0735
     0.1129   0.1347   0.1948   0.2056   0.2110   0.2384   0.2631   0.2690
     0.3438   0.3600   0.4078   0.4423   1.3098   1.4685   2.0494   3.0624
     3.2801   3.5313   4.1275   4.3520   5.0634   5.6247   6.1838   6.2125
     7.8547   7.9297   8.3531   8.5540   8.6734   9.0249   9.2195

          k = 0.3750-0.1554 0.0000 ( 21345 PWs)   bands (ev):

    -2.8133  -2.8084  -2.6314  -2.6135  -2.5330  -2.5278  -2.3738  -2.3345
    -2.2591  -2.2084  -2.1061  -2.0068  -1.9846  -1.9656  -1.9312  -1.9114
    -1.8660  -1.8631  -1.8003  -1.7471  -1.5955  -1.5766  -1.5276  -1.4945
    -1.4084  -1.3494  -1.2561  -1.2262  -1.1581  -1.0523  -1.0490  -0.8923
    -0.7857  -0.7410  -0.6696  -0.6624  -0.6564  -0.4644  -0.4152  -0.3047
    -0.2352  -0.1887  -0.1339  -0.0903  -0.0286  -0.0261  -0.0071   0.0303
     0.0435   0.1092   0.1179   0.1432   0.1775   0.1847   0.2386   0.2562
     0.3145   0.3493   0.3933   0.4227   0.9402   1.0055   1.5653   2.6537
     3.9900   4.6643   4.9543   5.3318   5.5503   5.7875   6.0596   6.2105
     7.4044   8.0460   8.1926   8.6224   8.8219   9.2511   9.7744

          k = 0.3750-0.0777 0.0000 ( 21373 PWs)   bands (ev):

    -2.7194  -2.7160  -2.6323  -2.6297  -2.5575  -2.5411  -2.4377  -2.3922
    -2.3125  -2.2874  -2.1306  -2.1219  -2.1053  -2.0641  -2.0206  -1.8895
    -1.7223  -1.6169  -1.6055  -1.5853  -1.5382  -1.4992  -1.4873  -1.4557
    -1.4101  -1.3822  -1.3308  -1.3002  -1.1145  -1.0959  -1.0674  -1.0300
    -0.9285  -0.9263  -0.7979  -0.7570  -0.7250  -0.5486  -0.5271  -0.5034
    -0.3492  -0.2333  -0.1287  -0.0563  -0.0338  -0.0029   0.0474   0.1032
     0.1054   0.1253   0.1494   0.1641   0.2157   0.2416   0.2623   0.2647
     0.3363   0.3416   0.3696   0.3738   0.8043   0.9033   1.4316   2.4591
     3.7622   5.2034   5.5467   6.0035   6.2724   6.4318   6.6565   6.9428
     7.0670   8.1587   8.4804   8.5960   9.0821   9.6086   9.6585

          k =-0.5000 0.0000 0.0000 ( 21294 PWs)   bands (ev):

    -2.8115  -2.8078  -2.5493  -2.5464  -2.5352  -2.5349  -2.4891  -2.4834
    -2.4778  -2.4530  -2.4178  -2.3310  -2.2913  -2.1515  -2.1361  -1.9505
    -1.7532  -1.7503  -1.7263  -1.5217  -1.5080  -1.4935  -1.4160  -1.4114
    -1.2738  -1.1586  -1.1006  -1.0869  -1.0851  -1.0389  -1.0350  -0.9847
    -0.8914  -0.8827  -0.8811  -0.8590  -0.7825  -0.5846  -0.4882  -0.3830
    -0.2955  -0.1060  -0.0979  -0.0352  -0.0309   0.0087   0.1813   0.1955
     0.3219   0.3374   0.3427   0.3437   0.3498   0.3552   0.3653   0.3900
     0.4048   0.4053   0.4369   0.4598   2.7184   2.7277   2.9668   2.9729
     3.2708   3.9453   4.2379   5.2053   5.8097   6.1835   7.2803   7.3329
     8.7849   9.2203   9.6739   9.8963   9.9767  10.0959  10.1270

          k =-0.5000 0.0777 0.0000 ( 21286 PWs)   bands (ev):

    -2.7756  -2.7704  -2.7690  -2.7665  -2.5979  -2.5802  -2.5221  -2.4908
    -2.3921  -2.2217  -2.1998  -2.1905  -2.1887  -2.1776  -2.0889  -1.9019
    -1.7027  -1.6930  -1.6877  -1.6450  -1.6420  -1.5328  -1.4964  -1.4590
    -1.4177  -1.4123  -1.3289  -1.2533  -1.1645  -0.9375  -0.9145  -0.8859
    -0.8476  -0.8313  -0.8286  -0.7938  -0.5191  -0.4824  -0.3548  -0.2895
    -0.2603  -0.1463  -0.0262  -0.0205   0.0765   0.1169   0.1750   0.1943
     0.2141   0.2469   0.2804   0.3164   0.3331   0.3697   0.3746   0.3939
     0.3978   0.4131   0.4132   0.4183   2.7930   2.8040   3.0103   3.0334
     3.3032   3.9729   4.2600   5.1964   5.7797   6.1701   7.1671   7.2497
     8.5957   8.7058   8.7265   8.9884   9.1267   9.3646   9.4595

          k =-0.5000 0.1554 0.0000 ( 21260 PWs)   bands (ev):

    -2.9024  -2.9016  -2.7153  -2.7018  -2.6569  -2.6391  -2.4952  -2.3840
    -2.3156  -2.2867  -2.1584  -2.0390  -2.0180  -1.9834  -1.9671  -1.9369
    -1.9192  -1.8956  -1.8892  -1.8126  -1.6570  -1.6299  -1.5384  -1.5295
    -1.4045  -1.3766  -1.3261  -1.2964  -1.2824  -0.8534  -0.7865  -0.7368
    -0.7273  -0.6868  -0.6532  -0.6308  -0.4441  -0.2918  -0.2484  -0.2467
    -0.2185  -0.1100  -0.0646  -0.0317   0.0194   0.0481   0.0682   0.0844
     0.0997   0.2332   0.2421   0.3202   0.3205   0.3894   0.4280   0.4299
     0.4485   0.4520   0.4829   0.4843   3.0290   3.0430   3.1729   3.2477
     3.4512   4.0517   4.3136   5.1295   5.5536   5.9787   6.3608   6.4876
     7.9159   8.0310   8.0991   8.4122   8.4448   8.6006   8.8735

          k =-0.5000 0.2331 0.0000 ( 21256 PWs)   bands (ev):

    -2.9013  -2.9005  -2.6899  -2.6874  -2.6076  -2.6027  -2.4522  -2.4117
    -2.3502  -2.2514  -2.2268  -2.1923  -2.1594  -2.1437  -2.1337  -2.0016
    -1.9799  -1.9719  -1.8227  -1.7626  -1.6546  -1.5844  -1.5325  -1.4379
    -1.4165  -1.2410  -1.1794  -1.1067  -1.0193  -0.7991  -0.7694  -0.6346
[...]
    -1.9123  -1.8953  -1.8593  -1.8083  -1.6374  -1.5844  -1.5781  -1.5060
    -1.2205  -1.1967  -1.0327  -1.0306  -0.8975  -0.8857  -0.7834  -0.7684
    -0.7462  -0.7444  -0.6847  -0.6824  -0.6132  -0.5886  -0.5554  -0.5472
    -0.3709  -0.3657  -0.3226  -0.3213  -0.0631  -0.0469   0.0491   0.0591
     0.1204   0.1232   0.1819   0.2005   0.2646   0.2682   0.3013   0.3068
     0.3278   0.3376   0.3604   0.3924   2.0877   2.0974   2.3094   2.3278
     2.8963   2.9084   3.8736   3.8821   5.1296   5.1553   6.3732   6.3834
     7.9545   8.0060   8.4073   8.4149   8.8567   8.8643   9.0640

          k = 0.3750-0.2331 0.0000 ( 21344 PWs)   bands (ev):

    -2.8336  -2.8287  -2.6333  -2.6279  -2.5183  -2.5169  -2.3984  -2.3396
    -2.2727  -2.2336  -2.1962  -2.1898  -2.1310  -2.1037  -2.0586  -2.0196
    -1.9127  -1.9089  -1.7830  -1.7412  -1.6726  -1.6320  -1.5422  -1.4813
    -1.3346  -1.2750  -1.1489  -1.0738  -1.0542  -0.9991  -0.9568  -0.8150
    -0.7228  -0.6868  -0.6485  -0.5715  -0.5346  -0.4508  -0.4252  -0.4048
    -0.3812  -0.3732  -0.3316  -0.2233  -0.1726  -0.1657   0.0439   0.0627
     0.1046   0.1345   0.1788   0.2017   0.2040   0.2263   0.2510   0.2630
     0.3359   0.3676   0.4083   0.4519   1.2950   1.4447   2.0264   3.0466
     3.2660   3.5229   4.1160   4.3508   5.0440   5.6229   6.1833   6.2005
     7.8821   7.9489   8.3611   8.5646   8.6853   9.0239   9.2143

          k = 0.3750-0.1554 0.0000 ( 21345 PWs)   bands (ev):

    -2.8453  -2.8395  -2.6658  -2.6473  -2.5617  -2.5558  -2.3976  -2.3749
    -2.2720  -2.2406  -2.1401  -2.0493  -2.0105  -1.9950  -1.9586  -1.9466
    -1.8910  -1.8820  -1.8420  -1.7704  -1.6154  -1.5996  -1.5665  -1.5128
    -1.4344  -1.3575  -1.2733  -1.2335  -1.1771  -1.0774  -1.0621  -0.9106
    -0.8133  -0.7612  -0.6944  -0.6758  -0.6638  -0.4986  -0.4403  -0.3329
    -0.2489  -0.1938  -0.1457  -0.0969  -0.0403  -0.0279  -0.0145   0.0130
     0.0332   0.0907   0.1108   0.1359   0.1636   0.1749   0.2332   0.2461
     0.3039   0.3450   0.3924   0.4215   0.9256   0.9836   1.5483   2.6425
     4.0019   4.6526   4.9417   5.3503   5.5484   5.7721   6.0392   6.1972
     7.4395   8.0518   8.2177   8.6256   8.8531   9.2725   9.7927

          k = 0.3750-0.0777 0.0000 ( 21373 PWs)   bands (ev):

    -2.7550  -2.7486  -2.6671  -2.6610  -2.5809  -2.5627  -2.4649  -2.4248
    -2.3455  -2.3033  -2.1558  -2.1415  -2.1361  -2.0827  -2.0324  -1.9085
    -1.7394  -1.6342  -1.6260  -1.6050  -1.5748  -1.5328  -1.5045  -1.4827
    -1.4173  -1.3994  -1.3445  -1.3209  -1.1426  -1.1271  -1.0881  -1.0457
    -0.9675  -0.9444  -0.8237  -0.7857  -0.7429  -0.5774  -0.5544  -0.5301
    -0.3838  -0.2549  -0.1512  -0.0936  -0.0472  -0.0118   0.0394   0.0876
     0.1017   0.1157   0.1426   0.1513   0.2035   0.2274   0.2473   0.2595
     0.3303   0.3398   0.3501   0.3666   0.7912   0.8884   1.4253   2.4553
     3.7777   5.2350   5.5267   5.9939   6.2592   6.4219   6.6641   6.9282
     7.0931   8.1873   8.5100   8.6025   9.0994   9.6408   9.6606

          k =-0.5000 0.0000 0.0000 ( 21294 PWs)   bands (ev):

    -2.8492  -2.8387  -2.5936  -2.5931  -2.5600  -2.5531  -2.5106  -2.5054
    -2.5025  -2.4667  -2.4263  -2.3615  -2.3041  -2.1855  -2.1436  -1.9583
    -1.7781  -1.7558  -1.7363  -1.5262  -1.5223  -1.4938  -1.4450  -1.4175
    -1.3009  -1.1850  -1.1573  -1.0973  -1.0955  -1.0947  -1.0422  -1.0213
    -0.9260  -0.9116  -0.8878  -0.8839  -0.8028  -0.6283  -0.5123  -0.4192
    -0.3227  -0.1263  -0.1207  -0.1139  -0.0354  -0.0066   0.1700   0.1890
     0.3170   0.3235   0.3257   0.3268   0.3353   0.3460   0.3548   0.3851
     0.4002   0.4024   0.4085   0.4483   2.6998   2.7108   2.9478   2.9614
     3.2693   3.9294   4.2282   5.2010   5.8430   6.1712   7.3357   7.3419
     8.8455   9.2473   9.7214   9.8793   9.9767  10.0788  10.1302

          k =-0.5000 0.0777 0.0000 ( 21286 PWs)   bands (ev):

    -2.8174  -2.8077  -2.7942  -2.7913  -2.6237  -2.6022  -2.5522  -2.5190
    -2.4107  -2.2641  -2.2405  -2.2161  -2.2023  -2.1959  -2.0940  -1.9085
    -1.7239  -1.7053  -1.6963  -1.6710  -1.6615  -1.5658  -1.5079  -1.4863
    -1.4365  -1.4274  -1.3551  -1.2747  -1.1888  -0.9576  -0.9450  -0.9094
    -0.8769  -0.8683  -0.8400  -0.8134  -0.5547  -0.5002  -0.3815  -0.3183
    -0.2824  -0.1752  -0.0535  -0.0352   0.0531   0.1006   0.1666   0.1861
     0.2082   0.2286   0.2750   0.2993   0.3214   0.3578   0.3667   0.3822
     0.3841   0.3953   0.4069   0.4132   2.7742   2.7868   2.9908   3.0187
     3.2978   3.9544   4.2472   5.1902   5.8095   6.1549   7.2109   7.2501
     8.5973   8.7253   8.7490   8.9864   9.1424   9.3904   9.4707

          k =-0.5000 0.1554 0.0000 ( 21260 PWs)   bands (ev):

    -2.9336  -2.9319  -2.7523  -2.7369  -2.6833  -2.6655  -2.5192  -2.4243
    -2.3484  -2.3081  -2.1979  -2.0776  -2.0407  -2.0110  -1.9886  -1.9758
    -1.9661  -1.9379  -1.8979  -1.8190  -1.6984  -1.6426  -1.5637  -1.5553
    -1.4221  -1.3908  -1.3504  -1.2943  -1.2941  -0.8837  -0.8008  -0.7630
    -0.7486  -0.7046  -0.6658  -0.6390  -0.4681  -0.3167  -0.2940  -0.2544
    -0.2344  -0.1187  -0.0713  -0.0402   0.0023   0.0467   0.0626   0.0687
     0.1030   0.2252   0.2420   0.3031   0.3236   0.3936   0.4149   0.4168
     0.4356   0.4457   0.4529   0.4784   3.0107   3.0256   3.1536   3.2248
     3.4355   4.0265   4.2930   5.1172   5.5700   5.9533   6.3695   6.4689
     7.9260   8.0603   8.1038   8.4398   8.4524   8.6052   8.8942

          k =-0.5000 0.2331 0.0000 ( 21256 PWs)   bands (ev):

    -2.9329  -2.9326  -2.7227  -2.7218  -2.6382  -2.6368  -2.4784  -2.4404
    -2.3866  -2.2752  -2.2718  -2.2410  -2.2022  -2.1934  -2.1422  -2.0557
    -2.0066  -2.0038  -1.8675  -1.7990  -1.6764  -1.6336  -1.5545  -1.4769
    -1.4262  -1.2525  -1.1769  -1.1221  -1.0178  -0.8064  -0.7905  -0.6495
    -0.6422  -0.6237  -0.5809  -0.4531  -0.4239  -0.3759  -0.3390  -0.3290
    -0.2824  -0.2759  -0.2511  -0.2232  -0.0109   0.0156   0.0577   0.1611
     0.2047   0.2478   0.3017   0.3368   0.3449   0.4346   0.4527   0.4533
     0.4795   0.4850   0.5033   0.5153   3.4625   3.4692   3.5225   3.6374
     3.7803   4.1308   4.3219   4.8294   4.9391   5.2055   5.3089   5.3793
     7.6173   7.6886   7.8382   8.0001   8.2999   8.4025   8.5547

          k =-0.5000-0.3108 0.0000 ( 21304 PWs)   bands (ev):

    -2.8120  -2.8047  -2.8046  -2.8041  -2.6026  -2.5921  -2.5915  -2.5883
    -2.4036  -2.3563  -2.3160  -2.1998  -2.1663  -2.1613  -2.1509  -2.1498
    -1.9875  -1.9607  -1.9335  -1.8550  -1.6720  -1.6502  -1.6225  -1.5815
    -1.0767  -1.0601  -0.9389  -0.9318  -0.8119  -0.8042  -0.8025  -0.7991
    -0.6817  -0.6706  -0.6409  -0.6343  -0.5861  -0.5601  -0.4918  -0.4902
    -0.1809  -0.1728  -0.1654  -0.1616   0.1655   0.1703   0.1757   0.1857
     0.2553   0.2819   0.3475   0.3493   0.3594   0.3618   0.3679   0.3807
     0.4568   0.4666   0.4989   0.5082   4.0660   4.0845   4.0867   4.0959
     4.1599   4.1763   4.1805   4.1820   4.3083   4.3740   4.7404   4.8041
     7.5102   7.5629   7.8368   7.8472   8.3411   8.3432   8.4805

     the Fermi energy is     3.2801 ev

!    total energy              =   -1011.51017972 Ry
     estimated scf accuracy    <          3.3E-09 Ry
     smearing contrib. (-TS)   =       0.00034464 Ry
     internal energy E=F+TS    =   -1011.51052436 Ry

     The total energy is F=E-TS. E is the sum of the following terms:
     one-electron contribution =  -14381.63010190 Ry
     hartree contribution      =    7292.34891204 Ry
     xc contribution           =    -267.96717571 Ry
     ewald contribution        =    6346.09432899 Ry
     DFT-D3 Dispersion         =      -0.35648778 Ry

     convergence has been achieved in   7 iterations

     negative rho (up, down):  2.698E-05 0.000E+00

     Forces acting on atoms (cartesian axes, Ry/au):

     atom    1 type  1   force =    -0.00000046   -0.00000010   -0.00043659
     atom    2 type  1   force =     0.00000008    0.00000034   -0.00037932
     atom    3 type  1   force =    -0.00000029   -0.00000052    0.00002539
     atom    4 type  1   force =     0.00000050    0.00000011   -0.00090682
     atom    5 type  1   force =     0.00000011    0.00000015   -0.00400731
     atom    6 type  1   force =    -0.00000007   -0.00000002   -0.00419181
     atom    7 type  1   force =    -0.00000002   -0.00000001    0.00144881
     atom    8 type  1   force =     0.00000012    0.00000002   -0.00126470
     atom    9 type  1   force =     0.00000003    0.00000003    0.00604605
     atom   10 type  1   force =    -0.00000003   -0.00000001    0.00094955
     atom   11 type  1   force =     0.00000001   -0.00000001   -0.00420096
     atom   12 type  1   force =     0.00000001    0.00000001    0.00691771
     The non-local contrib.  to forces
     atom    1 type  1   force =    -0.00000027    0.00000008    0.09951663
     atom    2 type  1   force =    -0.00000010    0.00000027    0.01188243
     atom    3 type  1   force =    -0.00000017   -0.00000060    0.02894319
     atom    4 type  1   force =     0.00000037    0.00000006    0.01315289
     atom    5 type  1   force =     0.00000015    0.00000023   -0.00129712
     atom    6 type  1   force =    -0.00000012   -0.00000007   -0.00572533
     atom    7 type  1   force =    -0.00000004   -0.00000007    0.00567215
     atom    8 type  1   force =     0.00000009    0.00000001   -0.00447873
     atom    9 type  1   force =     0.00000000    0.00000002   -0.00476707
     atom   10 type  1   force =    -0.00000005    0.00000000   -0.02749620
     atom   11 type  1   force =    -0.00000001   -0.00000003   -0.01649925
     atom   12 type  1   force =    -0.00000001    0.00000001   -0.10239030
     The ionic contribution  to forces
     atom    1 type  1   force =    -0.00001591   -0.00001999  177.06255900
     atom    2 type  1   force =     0.00000760    0.00003530  160.89613399
     atom    3 type  1   force =    -0.00001115   -0.00003910  112.87453271
     atom    4 type  1   force =     0.00001638    0.00002124   91.01080273
     atom    5 type  1   force =     0.00000618    0.00000482   44.91535014
     atom    6 type  1   force =    -0.00000307   -0.00000243   22.21570044
     atom    7 type  1   force =    -0.00000004    0.00000024  -22.95361677
     atom    8 type  1   force =     0.00000001   -0.00000008  -45.54098028
     atom    9 type  1   force =     0.00000000    0.00000001  -90.77487720
     atom   10 type  1   force =    -0.00000000   -0.00000000 -113.15624066
     atom   11 type  1   force =    -0.00000000    0.00000000 -159.57634321
     atom   12 type  1   force =     0.00000000   -0.00000000 -176.97302088
     The local contribution  to forces
     atom    1 type  1   force =     0.00001568    0.00001974 -177.15057784
     atom    2 type  1   force =    -0.00000738   -0.00003516 -160.89984886
     atom    3 type  1   force =     0.00001099    0.00003894 -112.89887515
     atom    4 type  1   force =    -0.00001619   -0.00002105  -91.02141063
     atom    5 type  1   force =    -0.00000619   -0.00000486  -44.91879044
     atom    6 type  1   force =     0.00000308    0.00000245  -22.21455072
     atom    7 type  1   force =     0.00000007   -0.00000014   22.94900636
     atom    8 type  1   force =    -0.00000000    0.00000005   45.54365174
     atom    9 type  1   force =    -0.00000001   -0.00000000   90.78344535
     atom   10 type  1   force =     0.00000000   -0.00000004  113.18043393
     atom   11 type  1   force =     0.00000000    0.00000001  159.57938165
     atom   12 type  1   force =     0.00000002   -0.00000001  177.07177923
     The core correction contribution to forces
     atom    1 type  1   force =     0.00000006    0.00000002   -0.00705648
     atom    2 type  1   force =    -0.00000003   -0.00000006   -0.00362331
     atom    3 type  1   force =     0.00000005    0.00000008   -0.00022937
     atom    4 type  1   force =    -0.00000006   -0.00000002   -0.00086810
     atom    5 type  1   force =    -0.00000002   -0.00000002    0.00091418
     atom    6 type  1   force =     0.00000001    0.00000000    0.00039208
     atom    7 type  1   force =     0.00000000    0.00000000    0.00004395
     atom    8 type  1   force =     0.00000000   -0.00000000   -0.00006114
     atom    9 type  1   force =    -0.00000000    0.00000000    0.00004636
     atom   10 type  1   force =     0.00000000   -0.00000000    0.00009609
     atom   11 type  1   force =    -0.00000000   -0.00000000    0.00412597
     atom   12 type  1   force =     0.00000000   -0.00000000    0.00623619
     The Hubbard contrib.    to forces
     atom    1 type  1   force =     0.00000000    0.00000000    0.00000000
     atom    2 type  1   force =     0.00000000    0.00000000    0.00000000
     atom    3 type  1   force =     0.00000000    0.00000000    0.00000000
     atom    4 type  1   force =     0.00000000    0.00000000    0.00000000
     atom    5 type  1   force =     0.00000000    0.00000000    0.00000000
     atom    6 type  1   force =     0.00000000    0.00000000    0.00000000
     atom    7 type  1   force =     0.00000000    0.00000000    0.00000000
     atom    8 type  1   force =     0.00000000    0.00000000    0.00000000
     atom    9 type  1   force =     0.00000000    0.00000000    0.00000000
     atom   10 type  1   force =     0.00000000    0.00000000    0.00000000
     atom   11 type  1   force =     0.00000000    0.00000000    0.00000000
     atom   12 type  1   force =     0.00000000    0.00000000    0.00000000
     The SCF correction term to forces
     atom    1 type  1   force =    -0.00000007    0.00000004    0.00008263
     atom    2 type  1   force =     0.00000000    0.00000000   -0.00002635
     atom    3 type  1   force =    -0.00000005    0.00000012   -0.00002372
     atom    4 type  1   force =     0.00000003   -0.00000012   -0.00006363
     atom    5 type  1   force =    -0.00000000   -0.00000000   -0.00000000
     atom    6 type  1   force =     0.00000000    0.00000000    0.00000000
     atom    7 type  1   force =    -0.00000000   -0.00000000    0.00000000
     atom    8 type  1   force =     0.00000000    0.00000000    0.00000000
     atom    9 type  1   force =     0.00000000   -0.00000000    0.00000000
     atom   10 type  1   force =     0.00000000    0.00000000   -0.00000000
     atom   11 type  1   force =     0.00000000    0.00000000   -0.00000000
     atom   12 type  1   force =    -0.00000000   -0.00000000   -0.00000000

     DFT-D3 dispersion contribution to forces:
     atom    1 type  1   force =     0.00000003    0.00000000   -0.00495594
     atom    2 type  1   force =    -0.00000002   -0.00000002   -0.00489261
     atom    3 type  1   force =     0.00000003    0.00000004   -0.00431766
     atom    4 type  1   force =    -0.00000004   -0.00000000   -0.00251547
     atom    5 type  1   force =    -0.00000001   -0.00000001   -0.00011467
     atom    6 type  1   force =     0.00000001   -0.00000000   -0.00002189
     atom    7 type  1   force =    -0.00000000    0.00000000    0.00030210
     atom    8 type  1   force =     0.00000000    0.00000000    0.00053386
     atom    9 type  1   force =    -0.00000000   -0.00000000    0.00217568
     atom   10 type  1   force =     0.00000000    0.00000000    0.00418826
     atom   11 type  1   force =     0.00000000   -0.00000000    0.00522538
     atom   12 type  1   force =     0.00000000    0.00000000    0.00439295

     Total force =     0.001076     Total SCF correction =     0.000110
     SCF correction compared to forces is large: reduce conv_thr to get better values


     Computing stress (Cartesian axis) and pressure


     negative rho (up, down):  2.698E-05 0.000E+00
          total   stress  (Ry/bohr**3)                   (kbar)     P=      -15.84
  -0.00012999  -0.00000000  -0.00000000          -19.12       -0.00       -0.00
  -0.00000000  -0.00009461  -0.00000000           -0.00      -13.92       -0.00
  -0.00000000  -0.00000000  -0.00009845           -0.00       -0.00      -14.48

     Energy error            =      9.3E-06 Ry
     Gradient error          =      9.1E-04 Ry/Bohr

     bfgs converged in  16 scf cycles and  15 bfgs steps
     (criteria: energy <  1.0E-04 Ry, force <  1.0E-03 Ry/Bohr)

     End of BFGS Geometry Optimization

     Final energy             =   -1011.5101797238 Ry

     File ./Ag_100/Ag_100.bfgs deleted, as requested
Begin final coordinates

ATOMIC_POSITIONS (angstrom)
Ag            0.7305814295        3.5262479036       23.3857992031
Ag            2.1917252699        1.1754161676       22.6507820311
Ag            2.1917278002        3.5262509397       20.9147582562
Ag            0.7305720247        1.1754177846       20.0919941613
Ag            0.7305747850        3.5262463575       18.4359509757    0   0   0
Ag            2.1917243550        1.1754154525       17.5923558781    0   0   0
Ag            2.1917243550        3.5262463575       15.9051656830    0   0   0
Ag            0.7305747850        1.1754154525       15.0615705854    0   0   0
Ag            0.7305747850        3.5262463575       13.3743803903    0   0   0
Ag            2.1917243550        1.1754154525       12.5307852927    0   0   0
Ag            2.1917243550        3.5262463575       10.8435950976    0   0   0
Ag            0.7305747850        1.1754154525       10.0000000000    0   0   0
End final coordinates



     Writing all to output data dir ./Ag_100/Ag_100.save/

     init_run     :      9.57s CPU     12.99s WALL (       1 calls)
     electrons    :    247.19s CPU    269.82s WALL (      16 calls)
     update_pot   :      4.86s CPU      5.16s WALL (      15 calls)
     forces       :      8.95s CPU     10.42s WALL (      16 calls)
     force_dftd3  :      1.45s CPU      1.98s WALL (      16 calls)
     stress       :     54.97s CPU     55.71s WALL (      16 calls)
     stres_dftd3  :      0.09s CPU      0.13s WALL (      16 calls)

     Called by init_run:
     wfcinit      :      0.86s CPU      1.22s WALL (       1 calls)
     potinit      :      1.84s CPU      4.05s WALL (       1 calls)
     hinit0       :      6.71s CPU      7.46s WALL (       1 calls)

     Called by electrons:
     c_bands      :    214.37s CPU    225.80s WALL (     145 calls)
     sum_band     :     25.98s CPU     27.50s WALL (     145 calls)
     v_of_rho     :      3.04s CPU     10.45s WALL (     146 calls)
     newd         :      3.65s CPU      5.56s WALL (     146 calls)
     mix_rho      :      0.36s CPU      0.52s WALL (     145 calls)
     energy_dftd3 :      0.04s CPU      0.04s WALL (      16 calls)

     Called by c_bands:
     init_us_2    :      1.41s CPU      1.48s WALL (    2907 calls)
     init_us_2:cp :      1.41s CPU      1.47s WALL (    2907 calls)
     cegterg      :    196.69s CPU    204.17s WALL (    1305 calls)

     Called by *egterg:
     cdiaghg      :     38.34s CPU     38.61s WALL (    4914 calls)
     h_psi        :    116.26s CPU    121.66s WALL (    5193 calls)
     s_psi        :      9.26s CPU      9.33s WALL (    5193 calls)
     g_psi        :      0.42s CPU      0.43s WALL (    3879 calls)

     Called by h_psi:
     h_psi:calbec :     16.08s CPU     17.53s WALL (    5193 calls)
     vloc_psi     :     89.82s CPU     93.68s WALL (    5193 calls)
     add_vuspsi   :      9.67s CPU      9.76s WALL (    5193 calls)

     General routines
     calbec       :     24.94s CPU     27.06s WALL (    7218 calls)
     fft          :     10.24s CPU     21.27s WALL (    2296 calls)
     ffts         :      1.73s CPU      1.84s WALL (     291 calls)
     fftw         :     94.14s CPU     98.01s WALL (  639479 calls)
     interpolate  :      1.86s CPU      2.67s WALL (     146 calls)

     Parallel routines

     PWSCF        :   5m26.94s CPU   5m56.92s WALL


   This run was terminated on:   6:55:30  24Jul2025            

=------------------------------------------------------------------------------=
   JOB DONE.
=------------------------------------------------------------------------------=
