
     Program PWSCF v.7.2 starts on 25Jul2025 at 11:18:46 

     This program is part of the open-source Quantum ESPRESSO suite
     for quantum simulation of materials; please cite
         "P. Giannozzi et al., J. Phys.:Condens. Matter 21 395502 (2009);
         "P. Giannozzi et al., J. Phys.:Condens. Matter 29 465901 (2017);
         "P. Giannozzi et al., J. Chem. Phys. 152 154105 (2020);
          URL http://www.quantum-espresso.org", 
     in publications or presentations arising from this work. More details at
     http://www.quantum-espresso.org/quote

     Parallel version (MPI & OpenMP), running on     256 processor cores
     Number of MPI processes:               256
     Threads/MPI process:                     1

     MPI processes distributed on     4 nodes
     241952 MiB available memory on the printing compute node when the environment starts

     Reading input from Ag_mp-10597_110_hollow_1.in

     Current dimensions of program PWSCF are:
     Max number of different atomic species (ntypx) = 10
     Max number of k-points (npk) =  40000
     Max angular momentum in pseudopotentials (lmaxx) =  4
     Message from routine iosys:
     restart disabled: needed files not found

     K-points division:     npool     =       4
     R & G space division:  proc/nbgrp/npool/nimage =      64
     Subspace diagonalization in iterative solution of the eigenvalue problem:
     a serial algorithm will be used


     Parallelization info
     --------------------
     sticks:   dense  smooth     PW     G-vecs:    dense   smooth      PW
     Min          52      23      6                12956     3778     558
     Max          53      24      7                12995     3805     590
     Sum        3375    1477    427               830555   242337   36651

     Using Slab Decomposition



     bravais-lattice index     =            0
     lattice parameter (alat)  =       8.8849  a.u.
     unit-cell volume          =    4399.6779 (a.u.)^3
     number of atoms/cell      =           13
     number of atomic types    =            2
     number of electrons       =       135.00
     number of Kohn-Sham states=           82
     kinetic-energy cutoff     =      55.0000  Ry
     charge density cutoff     =     500.0000  Ry
     scf convergence threshold =      1.0E-06
     mixing beta               =       0.3000
     number of iterations used =            8  plain     mixing
     energy convergence thresh.=      1.0E-04
     force convergence thresh. =      1.0E-03
     Exchange-correlation= PBE
                           (   1   4   3   4   0   0   0)
     nstep                     =          500


     celldm(1)=   8.884853  celldm(2)=   0.000000  celldm(3)=   0.000000
     celldm(4)=   0.000000  celldm(5)=   0.000000  celldm(6)=   0.000000

     crystal axes: (cart. coord. in units of alat)
               a(1) = (   1.000000   0.000000   0.000000 )  
               a(2) = (   0.000000   1.072906  -0.088492 )  
               a(3) = (   0.000000   0.000000   5.846668 )  

     reciprocal axes: (cart. coord. in units 2 pi/alat)
               b(1) = (  1.000000 -0.000000  0.000000 )  
               b(2) = (  0.000000  0.932048  0.000000 )  
               b(3) = ( -0.000000  0.014107  0.171038 )  


     PseudoPot. # 1 for Li read from file:
     /home/ecastro/trabajo_final/pseudos/Li.pbe-s-rrkjus_psl.1.0.0.UPF
     MD5 check sum: 9f98d2529904d60b716d33989e9bc179
     Pseudo is Ultrasoft, Zval =  3.0
     Generated using &quot;atomic&quot; code by A. Dal Corso  v.6.3MaX
     Using radial grid of 1017 points,  4 beta functions with: 
                l(1) =   0
                l(2) =   0
                l(3) =   1
                l(4) =   1
     Q(r) pseudized with 0 coefficients 


     PseudoPot. # 2 for Ag read from file:
     /home/ecastro/trabajo_final/pseudos/Ag.pbe-n-rrkjus_psl.1.0.0.UPF
     MD5 check sum: 81cdf87bacf708300839c66ee23ce017
     Pseudo is Ultrasoft + core correction, Zval = 11.0
     Generated using &quot;atomic&quot; code by A. Dal Corso  v.6.2.2
     Using radial grid of 1237 points,  6 beta functions with: 
                l(1) =   0
                l(2) =   0
                l(3) =   1
                l(4) =   1
                l(5) =   2
                l(6) =   2
     Q(r) pseudized with 0 coefficients 


     atomic species   valence    mass     pseudopotential
        Li             3.00     6.94100     Li( 1.00)
        Ag            11.00   107.86820     Ag( 1.00)

     No symmetry found



   Cartesian axes

     site n.     atom                  positions (alat units)
         1           Ag  tau(   1) = (   0.2499996   0.2414747   3.6686431  )
         2           Ag  tau(   2) = (   0.7499998   0.9568073   3.6096448  )
         3           Ag  tau(   3) = (   0.2499999   0.7528089   3.3363941  )
         4           Ag  tau(   4) = (   0.7499999   0.3979474   3.3656634  )
         5           Ag  tau(   5) = (   0.2500000   0.1915904   3.0634458  )
         6           Ag  tau(   6) = (   0.7500000   0.9068611   3.0044513  )
         7           Ag  tau(   7) = (   0.2500000   0.7024981   2.7094786  )
         8           Ag  tau(   8) = (   0.7500000   0.3448627   2.7389759  )
         9           Ag  tau(   9) = (   0.2500000   0.1404996   2.4440032  )
        10           Ag  tau(  10) = (   0.7500000   0.8557704   2.3850086  )
        11           Ag  tau(  11) = (   0.2500000   0.6514073   2.0900360  )
        12           Ag  tau(  12) = (   0.7500000   0.2937719   2.1195332  )
        13           Li  tau(  13) = (   0.7499997   0.5148851   4.0940246  )

     --------------------------------------------
     DFT-D3 Dispersion Correction (no 3-body):
     --------------------------------------------
       Reference C6 values for interpolation: 

         atom   Coordination number   C6
         Li         0.000          2326.89
         Li         0.987           170.64
         Ag         0.000           853.49
         Ag         0.968           537.23

       Values used:

         atom   Coordination number  R0_AB[au]  C6      C8
         Ag         5.912            3.147    537.23  47741.54
         Ag         6.096            3.147    537.23  47741.54
         Ag         8.016            3.147    537.23  47741.54
         Ag         8.172            3.147    537.23  47741.54
         Ag         8.612            3.147    537.23  47741.54
         Ag         8.612            3.147    537.23  47741.54
         Ag         8.572            3.147    537.23  47741.54
         Ag         8.572            3.147    537.23  47741.54
         Ag         7.890            3.147    537.23  47741.54
         Ag         7.890            3.147    537.23  47741.54
         Ag         5.061            3.147    537.23  47741.54
         Ag         5.061            3.147    537.23  47741.54
         Li         1.492            3.303    170.94  12922.33

         Molecular C6 ( Ry / a.u.^6 ) =     84478.46


     number of k points=    34  Methfessel-Paxton smearing, width (Ry)=  0.0300
                       cart. coord. in units 2pi/alat
        k(    1) = (   0.0000000   0.0000000   0.0000000), wk =   0.0312500
        k(    2) = (   0.0000000   0.1165060   0.0000000), wk =   0.0625000
        k(    3) = (   0.0000000   0.2330120   0.0000000), wk =   0.0625000
        k(    4) = (   0.0000000   0.3495180   0.0000000), wk =   0.0625000
        k(    5) = (   0.0000000  -0.4660240   0.0000000), wk =   0.0312500
        k(    6) = (   0.1250000  -0.0000000   0.0000000), wk =   0.0625000
        k(    7) = (   0.1250000   0.1165060   0.0000000), wk =   0.0625000
        k(    8) = (   0.1250000   0.2330120   0.0000000), wk =   0.0625000
        k(    9) = (   0.1250000   0.3495180   0.0000000), wk =   0.0625000
        k(   10) = (   0.1250000  -0.4660240   0.0000000), wk =   0.0625000
        k(   11) = (   0.1250000  -0.3495180   0.0000000), wk =   0.0625000
        k(   12) = (   0.1250000  -0.2330120   0.0000000), wk =   0.0625000
        k(   13) = (   0.1250000  -0.1165060   0.0000000), wk =   0.0625000
        k(   14) = (   0.2500000  -0.0000000   0.0000000), wk =   0.0625000
        k(   15) = (   0.2500000   0.1165060   0.0000000), wk =   0.0625000
        k(   16) = (   0.2500000   0.2330120   0.0000000), wk =   0.0625000
        k(   17) = (   0.2500000   0.3495180   0.0000000), wk =   0.0625000
        k(   18) = (   0.2500000  -0.4660240   0.0000000), wk =   0.0625000
        k(   19) = (   0.2500000  -0.3495180   0.0000000), wk =   0.0625000
        k(   20) = (   0.2500000  -0.2330120   0.0000000), wk =   0.0625000
        k(   21) = (   0.2500000  -0.1165060   0.0000000), wk =   0.0625000
        k(   22) = (   0.3750000  -0.0000000   0.0000000), wk =   0.0625000
        k(   23) = (   0.3750000   0.1165060   0.0000000), wk =   0.0625000
        k(   24) = (   0.3750000   0.2330120   0.0000000), wk =   0.0625000
        k(   25) = (   0.3750000   0.3495180   0.0000000), wk =   0.0625000
        k(   26) = (   0.3750000  -0.4660240   0.0000000), wk =   0.0625000
        k(   27) = (   0.3750000  -0.3495180   0.0000000), wk =   0.0625000
        k(   28) = (   0.3750000  -0.2330120   0.0000000), wk =   0.0625000
        k(   29) = (   0.3750000  -0.1165060   0.0000000), wk =   0.0625000
        k(   30) = (  -0.5000000   0.0000000   0.0000000), wk =   0.0312500
        k(   31) = (  -0.5000000   0.1165060   0.0000000), wk =   0.0625000
        k(   32) = (  -0.5000000   0.2330120   0.0000000), wk =   0.0625000
        k(   33) = (  -0.5000000   0.3495180   0.0000000), wk =   0.0625000
        k(   34) = (  -0.5000000  -0.4660240   0.0000000), wk =   0.0312500

     Dense  grid:   830555 G-vectors     FFT dimensions: (  64,  72, 375)

     Smooth grid:   242337 G-vectors     FFT dimensions: (  45,  45, 250)

     Estimated max dynamical RAM per process >      29.75 MB

     Estimated total dynamical RAM >       6.85 GB
     Cannot read rho : file not found

     Initial potential from superposition of free atoms

     starting charge     134.9906, renormalised to     135.0000

     negative rho (up, down):  9.690E-05 0.000E+00
     Message from routine qexsd_readschema :
     xml data file ./Ag_mp-10597_110_hollow_1/Ag_mp-10597_110_hollow_1.save/data-file
     Cannot read wfcs: file not found
     Starting wfcs are  113 randomized atomic wfcs

     total cpu time spent up to now is        4.3 secs

     per-process dynamical memory:   184.8 Mb

     Self-consistent Calculation

     iteration #  1     ecut=    55.00 Ry     beta= 0.30
     Davidson diagonalization with overlap
     c_bands:  2 eigenvalues not converged
     c_bands:  1 eigenvalues not converged
     c_bands:  2 eigenvalues not converged
     c_bands:  1 eigenvalues not converged
     c_bands:  1 eigenvalues not converged
     c_bands:  2 eigenvalues not converged
     ethr =  1.00E-05,  avg # of iterations = 19.3

     negative rho (up, down):  7.925E-05 0.000E+00

     total cpu time spent up to now is       11.1 secs

     total energy              =   -1026.08694109 Ry
     estimated scf accuracy    <       0.53770580 Ry

     iteration #  2     ecut=    55.00 Ry     beta= 0.30
     Davidson diagonalization with overlap
     ethr =  3.98E-04,  avg # of iterations =  9.2

     negative rho (up, down):  9.124E-05 0.000E+00

     total cpu time spent up to now is       13.5 secs

     total energy              =   -1025.83966908 Ry
     estimated scf accuracy    <       4.90932414 Ry

     iteration #  3     ecut=    55.00 Ry     beta= 0.30
     Davidson diagonalization with overlap
     ethr =  3.98E-04,  avg # of iterations = 10.9

     negative rho (up, down):  1.147E-04 0.000E+00

     total cpu time spent up to now is       15.9 secs

     total energy              =   -1026.17185255 Ry
     estimated scf accuracy    <       1.93643233 Ry

     iteration #  4     ecut=    55.00 Ry     beta= 0.30
     Davidson diagonalization with overlap
     ethr =  3.98E-04,  avg # of iterations =  2.3

     negative rho (up, down):  6.773E-05 0.000E+00

     total cpu time spent up to now is       17.2 secs

     total energy              =   -1026.24172484 Ry
     estimated scf accuracy    <       0.10477468 Ry

     iteration #  5     ecut=    55.00 Ry     beta= 0.30
     Davidson diagonalization with overlap
     ethr =  7.76E-05,  avg # of iterations = 10.0

     negative rho (up, down):  5.053E-05 0.000E+00

     total cpu time spent up to now is       19.1 secs

     total energy              =   -1026.24168558 Ry
     estimated scf accuracy    <       0.01958180 Ry

     iteration #  6     ecut=    55.00 Ry     beta= 0.30
     Davidson diagonalization with overlap
     ethr =  1.45E-05,  avg # of iterations = 10.7

     negative rho (up, down):  3.110E-05 0.000E+00

     total cpu time spent up to now is       21.4 secs

     total energy              =   -1026.24409256 Ry
     estimated scf accuracy    <       0.00349016 Ry

     iteration #  7     ecut=    55.00 Ry     beta= 0.30
     Davidson diagonalization with overlap
     ethr =  2.59E-06,  avg # of iterations =  3.5

     negative rho (up, down):  3.976E-05 0.000E+00

     total cpu time spent up to now is       22.8 secs

     total energy              =   -1026.24449670 Ry
     estimated scf accuracy    <       0.00035519 Ry

     iteration #  8     ecut=    55.00 Ry     beta= 0.30
     Davidson diagonalization with overlap
     ethr =  2.63E-07,  avg # of iterations =  2.4

     negative rho (up, down):  7.499E-05 0.000E+00

     total cpu time spent up to now is       24.0 secs

     total energy              =   -1026.24456995 Ry
     estimated scf accuracy    <       0.00009866 Ry

     iteration #  9     ecut=    55.00 Ry     beta= 0.30
     Davidson diagonalization with overlap
     ethr =  7.31E-08,  avg # of iterations =  4.5

     negative rho (up, down):  6.754E-05 0.000E+00

     total cpu time spent up to now is       25.4 secs

     total energy              =   -1026.24458419 Ry
     estimated scf accuracy    <       0.00001790 Ry

     iteration # 10     ecut=    55.00 Ry     beta= 0.30
     Davidson diagonalization with overlap
     ethr =  1.33E-08,  avg # of iterations =  3.3

     negative rho (up, down):  5.520E-05 0.000E+00

     total cpu time spent up to now is       26.8 secs

     total energy              =   -1026.24458769 Ry
     estimated scf accuracy    <       0.00000152 Ry

     iteration # 11     ecut=    55.00 Ry     beta= 0.30
     Davidson diagonalization with overlap
     ethr =  1.12E-09,  avg # of iterations =  5.1

     negative rho (up, down):  3.164E-05 0.000E+00

     total cpu time spent up to now is       28.4 secs

     End of self-consistent calculation

          k = 0.0000 0.0000 0.0000 ( 30377 PWs)   bands (ev):

   -46.4973  -5.2096  -4.1678  -4.0025  -3.8568  -3.8096  -3.7421  -3.6354
    -3.5295  -3.5092  -3.4578  -3.3748  -3.2735  -3.1718  -3.1573  -3.0095
    -2.8760  -2.8603  -2.8385  -2.8384  -2.7704  -2.7379  -2.7203  -2.6500
    -2.5423  -2.4718  -2.4508  -2.4318  -2.4052  -2.3939  -2.3900  -2.3655
    -2.3443  -2.2648  -2.1839  -2.1813  -2.1590  -2.0938  -2.0271  -2.0197
    -2.0017  -1.9834  -1.8569  -1.7853  -1.6983  -1.5768  -1.5108  -1.4691
    -1.4383  -1.3552  -1.3425  -1.3215  -1.3119  -1.1564  -1.1083  -1.0297
    -1.0039  -0.9798  -0.9548  -0.9520  -0.9499  -0.8109  -0.7616  -0.5341
     0.9381   2.3591   2.4921   2.5915   3.5226   3.6913   3.9837   4.2087
     4.3571   4.7706   5.2320   5.5445   5.5716   5.7334   5.8488   6.1600
     6.3711   6.5638

          k = 0.0000 0.1165 0.0000 ( 30371 PWs)   bands (ev):

   -46.4973  -5.1109  -4.1248  -3.9620  -3.8275  -3.7702  -3.7319  -3.6915
    -3.5900  -3.5404  -3.5119  -3.4900  -3.2171  -3.1676  -3.1100  -3.0846
    -2.9580  -2.8753  -2.8551  -2.7929  -2.7554  -2.6860  -2.6338  -2.6319
    -2.4962  -2.4508  -2.4404  -2.4134  -2.3919  -2.3771  -2.3545  -2.3416
    -2.3183  -2.2567  -2.2203  -2.1879  -2.1506  -2.1111  -2.0376  -2.0355
    -2.0159  -1.8995  -1.8943  -1.7985  -1.6449  -1.5738  -1.5246  -1.5224
    -1.4216  -1.3706  -1.3563  -1.3206  -1.3162  -1.1197  -1.0989  -1.0793
    -1.0470  -0.9950  -0.9674  -0.9498  -0.9131  -0.8168  -0.7721  -0.4969
     0.9991   1.5010   2.4452   2.6516   2.7467   3.6913   4.0984   4.3761
     4.8445   4.9571   5.4320   5.5945   5.7011   5.8810   5.9696   6.2498
     6.3870   6.7291

          k = 0.0000 0.2330 0.0000 ( 30367 PWs)   bands (ev):

   -46.4973  -4.8263  -4.0194  -3.8720  -3.8403  -3.7452  -3.7334  -3.7107
    -3.6752  -3.6015  -3.5780  -3.4971  -3.2515  -3.1780  -3.1753  -3.1217
    -3.0039  -2.9282  -2.8414  -2.7572  -2.6974  -2.6873  -2.6108  -2.5582
    -2.5442  -2.4552  -2.4209  -2.3982  -2.3578  -2.3416  -2.3325  -2.2970
    -2.2771  -2.2046  -2.1974  -2.1683  -2.1363  -2.1026  -2.0758  -2.0119
    -1.9499  -1.9403  -1.8178  -1.7516  -1.6048  -1.5813  -1.5560  -1.5381
    -1.4984  -1.3652  -1.3304  -1.3174  -1.2963  -1.1494  -1.1447  -1.1209
    -1.0644  -0.9695  -0.9416  -0.9369  -0.9182  -0.8215  -0.7717  -0.3470
     0.2417   1.2293   1.4036   2.6927   2.8727   3.4118   3.7412   4.6147
     4.8507   5.1649   5.7470   5.8771   6.0131   6.0773   6.4956   6.5013
     6.7573   7.0746

          k = 0.0000 0.3495 0.0000 ( 30339 PWs)   bands (ev):

   -46.4973  -4.3995  -3.9892  -3.9230  -3.8459  -3.7209  -3.6943  -3.6705
    -3.6496  -3.6342  -3.6265  -3.3754  -3.3598  -3.2640  -3.1653  -3.1637
    -2.9923  -2.9458  -2.8343  -2.7664  -2.7239  -2.6910  -2.6791  -2.5774
    -2.5314  -2.5004  -2.4983  -2.4483  -2.4349  -2.3685  -2.3648  -2.2929
    -2.2733  -2.2349  -2.2164  -2.1113  -2.1024  -1.9974  -1.9757  -1.8944
    -1.8701  -1.8352  -1.7576  -1.7159  -1.5876  -1.5823  -1.5442  -1.5228
    -1.4618  -1.4056  -1.3859  -1.3056  -1.2075  -1.1537  -1.1420  -1.1036
    -1.0441  -0.9765  -0.9374  -0.9203  -0.8903  -0.8206  -0.7623  -0.6773
     0.0227   0.3391   1.6691   1.7975   3.0047   3.2325   4.3325   4.5824
     5.0081   5.5608   5.6166   6.1341   6.1727   6.2669   6.5686   6.6027
     6.7874   6.9026

          k = 0.0000-0.4660 0.0000 ( 30242 PWs)   bands (ev):

   -46.4972  -4.0195  -3.9695  -3.9445  -3.9376  -3.7978  -3.7068  -3.6893
    -3.6239  -3.6238  -3.5868  -3.4002  -3.3869  -3.2355  -3.1836  -3.1304
    -2.9782  -2.9020  -2.8529  -2.8521  -2.7766  -2.7039  -2.6996  -2.6194
    -2.5668  -2.5370  -2.4901  -2.4750  -2.4628  -2.4153  -2.3867  -2.2883
    -2.2502  -2.2445  -2.2238  -2.0775  -2.0368  -2.0025  -1.9991  -1.8352
    -1.8150  -1.7582  -1.6876  -1.6550  -1.6448  -1.5913  -1.5264  -1.5045
    -1.3968  -1.3946  -1.3601  -1.3000  -1.2216  -1.2140  -1.1869  -1.0724
    -1.0605  -0.9617  -0.9570  -0.9086  -0.8880  -0.8141  -0.7590  -0.5912
    -0.5241   0.7447   0.8760   2.2036   2.5344   3.3464   4.3814   5.1777
     5.3666   5.4469   5.5224   6.1954   6.3119   6.3262   6.4674   6.5016
     6.6349   6.8044

          k = 0.1250-0.0000 0.0000 ( 30357 PWs)   bands (ev):

   -46.4973  -5.0911  -4.0931  -3.9735  -3.9307  -3.8149  -3.7056  -3.5596
    -3.5356  -3.4550  -3.4258  -3.3249  -3.2557  -3.1520  -3.0658  -3.0154
    -2.9712  -2.9333  -2.8768  -2.8511  -2.8402  -2.7497  -2.7025  -2.6510
    -2.5992  -2.5094  -2.4991  -2.4811  -2.4711  -2.4509  -2.3511  -2.3070
    -2.2420  -2.1963  -2.1874  -2.1497  -2.1198  -2.1064  -2.0788  -2.0135
    -1.9720  -1.9536  -1.8269  -1.6887  -1.6851  -1.6289  -1.5001  -1.4447
    -1.3741  -1.3645  -1.3532  -1.3260  -1.1880  -1.1095  -1.0836  -1.0809
    -1.0687  -1.0271  -1.0088  -0.9512  -0.9346  -0.8825  -0.8434  -0.4539
     1.0400   1.6778   2.4524   2.6465   3.1621   3.6222   3.7214   4.1084
     4.3547   4.8774   5.0047   5.3741   5.6636   5.6742   5.8666   6.2995
     6.6485   6.9056

          k = 0.1250 0.1165 0.0000 ( 30355 PWs)   bands (ev):

   -46.4973  -4.9951  -4.0689  -3.9338  -3.8966  -3.7897  -3.7279  -3.6439
    -3.5770  -3.5257  -3.4588  -3.3525  -3.1927  -3.1623  -3.1016  -3.0080
    -2.9752  -2.9536  -2.8778  -2.8480  -2.7897  -2.7026  -2.6709  -2.6402
    -2.6205  -2.5852  -2.5033  -2.4552  -2.4320  -2.3679  -2.3217  -2.3097
    -2.2486  -2.2282  -2.1587  -2.1387  -2.1126  -2.0945  -2.0126  -1.9997
    -1.9709  -1.8875  -1.8585  -1.7102  -1.6386  -1.6078  -1.5268  -1.4562
    -1.4142  -1.3661  -1.3574  -1.3196  -1.1833  -1.1111  -1.0945  -1.0813
    -1.0741  -1.0473  -1.0467  -0.9700  -0.8966  -0.8855  -0.8545  -0.4267
     1.0945   1.5471   1.9066   2.5413   2.7484   3.3054   3.8056   4.2511
     4.8517   4.9444   4.9853   5.5726   5.7021   5.8186   6.0001   6.3354
     6.7795   6.9682

          k = 0.1250 0.2330 0.0000 ( 30324 PWs)   bands (ev):

   -46.4973  -4.7207  -4.0236  -3.8476  -3.8173  -3.8067  -3.7892  -3.7237
    -3.6887  -3.5680  -3.4534  -3.3296  -3.2155  -3.1884  -3.1401  -3.0861
    -3.0371  -2.9281  -2.9048  -2.7892  -2.7393  -2.7040  -2.6602  -2.6061
    -2.5681  -2.5345  -2.5027  -2.4616  -2.4399  -2.3934  -2.3415  -2.2857
    -2.2478  -2.1991  -2.1807  -2.1515  -2.0361  -2.0196  -1.9976  -1.9461
    -1.9093  -1.7684  -1.7312  -1.7220  -1.6328  -1.5646  -1.5570  -1.4880
    -1.4638  -1.3658  -1.3316  -1.2974  -1.2397  -1.1926  -1.1566  -1.0852
    -1.0557  -1.0292  -1.0085  -0.9295  -0.9101  -0.8853  -0.8459  -0.2999
     0.2722   1.3182   1.4878   2.4871   2.7839   2.9586   3.7372   3.8535
     4.6514   5.2059   5.2793   5.7561   5.8364   5.9966   6.1449   6.4030
     6.8660   7.1520

          k = 0.1250 0.3495 0.0000 ( 30314 PWs)   bands (ev):

   -46.4973  -4.3204  -4.0040  -3.9237  -3.8910  -3.8605  -3.7410  -3.6602
    -3.6405  -3.4880  -3.4211  -3.3549  -3.2891  -3.2684  -3.2014  -3.0995
    -3.0405  -2.9087  -2.8669  -2.7864  -2.7428  -2.7227  -2.6704  -2.6089
    -2.5814  -2.5546  -2.5238  -2.5153  -2.4745  -2.4336  -2.4079  -2.2563
    -2.2182  -2.1943  -2.1817  -2.1323  -2.0237  -1.9867  -1.9595  -1.8609
    -1.8207  -1.7523  -1.6702  -1.6227  -1.5815  -1.5306  -1.4929  -1.4796
    -1.4524  -1.3709  -1.3285  -1.2972  -1.2104  -1.1895  -1.1118  -1.0850
    -1.0446  -1.0114  -0.9917  -0.9506  -0.9065  -0.8683  -0.8237  -0.6546
     0.0594   0.4151   1.7459   1.8823   3.0818   3.2286   3.3202   4.3084
     4.6240   4.9777   5.0548   5.6267   5.6803   6.0104   6.1246   6.3307
     6.6634   6.9335

          k = 0.1250-0.4660 0.0000 ( 30312 PWs)   bands (ev):

   -46.4973  -3.9877  -3.9837  -3.9561  -3.9379  -3.8968  -3.8600  -3.5978
    -3.5775  -3.4389  -3.4086  -3.3792  -3.3786  -3.2663  -3.2637  -3.0405
    -2.9967  -2.8779  -2.8596  -2.8211  -2.7969  -2.7485  -2.7183  -2.6424
    -2.5895  -2.5798  -2.5495  -2.5184  -2.4780  -2.4725  -2.3982  -2.2423
    -2.2261  -2.2025  -2.1756  -2.0749  -2.0269  -1.9895  -1.9480  -1.8351
    -1.8034  -1.7016  -1.6946  -1.6183  -1.5928  -1.5128  -1.4275  -1.4113
    -1.4050  -1.3516  -1.3281  -1.2361  -1.2256  -1.1658  -1.1384  -1.0746
    -1.0657  -1.0168  -0.9873  -0.9698  -0.9588  -0.8900  -0.8383  -0.5212
    -0.4587   0.8018   0.9467   2.2785   2.6017   3.4153   4.0568   4.1022
     4.4359   4.9452   5.1170   5.2497   5.5664   6.0706   6.2495   6.3406
     6.5810   6.9884

          k = 0.1250-0.3495 0.0000 ( 30314 PWs)   bands (ev):

   -46.4973  -4.3204  -4.0040  -3.9237  -3.8910  -3.8605  -3.7410  -3.6602
    -3.6405  -3.4880  -3.4211  -3.3549  -3.2891  -3.2684  -3.2014  -3.0995
    -3.0405  -2.9087  -2.8669  -2.7864  -2.7428  -2.7227  -2.6704  -2.6089
    -2.5814  -2.5546  -2.5238  -2.5153  -2.4745  -2.4336  -2.4079  -2.2563
    -2.2182  -2.1943  -2.1817  -2.1323  -2.0237  -1.9867  -1.9595  -1.8609
    -1.8207  -1.7523  -1.6702  -1.6227  -1.5815  -1.5306  -1.4929  -1.4796
    -1.4524  -1.3709  -1.3285  -1.2972  -1.2104  -1.1895  -1.1118  -1.0850
    -1.0446  -1.0114  -0.9917  -0.9506  -0.9065  -0.8683  -0.8237  -0.6546
     0.0594   0.4151   1.7459   1.8823   3.0818   3.2286   3.3202   4.3084
     4.6240   4.9777   5.0548   5.6267   5.6803   6.0104   6.1246   6.3307
     6.6634   6.9329

          k = 0.1250-0.2330 0.0000 ( 30324 PWs)   bands (ev):

   -46.4973  -4.7207  -4.0236  -3.8476  -3.8173  -3.8067  -3.7892  -3.7237
    -3.6887  -3.5680  -3.4534  -3.3296  -3.2155  -3.1884  -3.1401  -3.0861
    -3.0371  -2.9281  -2.9048  -2.7892  -2.7393  -2.7040  -2.6602  -2.6061
    -2.5681  -2.5345  -2.5027  -2.4616  -2.4399  -2.3934  -2.3415  -2.2857
    -2.2478  -2.1991  -2.1807  -2.1515  -2.0361  -2.0196  -1.9976  -1.9461
    -1.9093  -1.7684  -1.7312  -1.7220  -1.6328  -1.5646  -1.5570  -1.4880
    -1.4638  -1.3658  -1.3316  -1.2974  -1.2397  -1.1926  -1.1566  -1.0852
    -1.0557  -1.0292  -1.0085  -0.9295  -0.9101  -0.8853  -0.8459  -0.2999
     0.2722   1.3182   1.4878   2.4871   2.7839   2.9586   3.7372   3.8534
     4.6514   5.2059   5.2793   5.7561   5.8364   5.9966   6.1449   6.4030
     6.8660   7.1515

          k = 0.1250-0.1165 0.0000 ( 30355 PWs)   bands (ev):

   -46.4973  -4.9951  -4.0689  -3.9338  -3.8966  -3.7897  -3.7279  -3.6439
    -3.5770  -3.5257  -3.4588  -3.3525  -3.1927  -3.1623  -3.1016  -3.0080
    -2.9752  -2.9536  -2.8778  -2.8480  -2.7897  -2.7026  -2.6709  -2.6402
    -2.6205  -2.5852  -2.5033  -2.4552  -2.4320  -2.3679  -2.3217  -2.3097
    -2.2486  -2.2282  -2.1587  -2.1387  -2.1126  -2.0945  -2.0126  -1.9997
    -1.9709  -1.8875  -1.8585  -1.7102  -1.6386  -1.6078  -1.5268  -1.4562
    -1.4142  -1.3661  -1.3574  -1.3196  -1.1833  -1.1111  -1.0945  -1.0813
    -1.0741  -1.0473  -1.0467  -0.9700  -0.8966  -0.8855  -0.8545  -0.4267
     1.0945   1.5471   1.9066   2.5413   2.7484   3.3054   3.8056   4.2511
     4.8517   4.9444   4.9853   5.5726   5.7021   5.8186   6.0001   6.3354
     6.7794   6.9686

          k = 0.2500-0.0000 0.0000 ( 30361 PWs)   bands (ev):

   -46.4973  -4.7531  -4.0421  -3.9042  -3.8787  -3.7054  -3.6099  -3.5462
    -3.4925  -3.4669  -3.3494  -3.2574  -3.1837  -3.1055  -3.0961  -3.0667
    -3.0010  -2.9427  -2.9269  -2.8923  -2.8817  -2.8206  -2.7517  -2.6322
    -2.5941  -2.5757  -2.5317  -2.5146  -2.5053  -2.4979  -2.4083  -2.2993
    -2.2587  -2.2245  -2.2121  -2.1613  -2.0896  -2.0621  -1.9723  -1.9634
    -1.8801  -1.7559  -1.7210  -1.7102  -1.5677  -1.5528  -1.4753  -1.3923
    -1.3795  -1.3607  -1.3481  -1.3282  -1.3204  -1.2624  -1.1931  -1.1193
    -1.0545  -1.0044  -1.0008  -0.9683  -0.9401  -0.8952  -0.8546  -0.2342
     0.3436   1.3508   1.7297   2.7162   2.8463   3.3660   3.7044   3.9411
     4.4380   4.7208   4.8272   5.1952   5.7743   5.9322   5.9880   6.2290
     6.3688   6.8963

          k = 0.2500 0.1165 0.0000 ( 30338 PWs)   bands (ev):

   -46.4973  -4.6659  -4.0106  -3.9382  -3.8321  -3.7217  -3.6999  -3.5624
    -3.5080  -3.4899  -3.3517  -3.2727  -3.2217  -3.1618  -3.1352  -3.0366
    -2.9774  -2.9529  -2.9322  -2.8773  -2.8120  -2.7636  -2.7316  -2.6631
    -2.6548  -2.6204  -2.5654  -2.5262  -2.4739  -2.4277  -2.3566  -2.3282
    -2.2487  -2.2101  -2.1617  -2.1406  -2.0185  -2.0044  -1.9204  -1.8782
    -1.8329  -1.7600  -1.7431  -1.6961  -1.5824  -1.5388  -1.4762  -1.4069
    -1.3871  -1.3743  -1.3384  -1.3259  -1.2874  -1.2742  -1.1809  -1.1661
    -1.0768  -1.0458  -1.0160  -0.9884  -0.9459  -0.8880  -0.8337  -0.2141
     0.5769   1.3905   1.7017   1.8894   2.8301   2.9964   3.5318   4.1276
     4.4601   4.5774   4.9275   5.2628   5.6977   5.9524   6.0405   6.1266
     6.4081   6.8966

          k = 0.2500 0.2330 0.0000 ( 30302 PWs)   bands (ev):

   -46.4972  -4.4256  -4.0188  -3.9200  -3.8818  -3.7218  -3.7164  -3.6254
    -3.5999  -3.4799  -3.4037  -3.3135  -3.2148  -3.1958  -3.1229  -3.0591
    -3.0304  -2.9383  -2.9296  -2.8801  -2.8071  -2.7650  -2.7191  -2.6984
    -2.6357  -2.5774  -2.5631  -2.4918  -2.4658  -2.4172  -2.3774  -2.2474
    -2.2225  -2.1753  -2.1026  -2.0956  -1.9715  -1.9365  -1.8720  -1.8008
    -1.7184  -1.7092  -1.6596  -1.6012  -1.5598  -1.5221  -1.4978  -1.4620
    -1.3634  -1.3498  -1.3249  -1.3033  -1.2763  -1.2733  -1.2031  -1.1638
    -1.0814  -1.0537  -1.0275  -0.9932  -0.9692  -0.8584  -0.8444  -0.1030
     0.4376   1.1011   1.5966   1.7628   2.1978   3.0457   3.3122   3.7111
     4.1044   4.2708   4.6725   5.2724   5.4761   5.6418   5.9010   6.2184
     6.4798   6.7895

          k = 0.2500 0.3495 0.0000 ( 30286 PWs)   bands (ev):

   -46.4972  -4.1224  -4.0826  -3.9750  -3.8448  -3.7999  -3.7747  -3.5913
    -3.5363  -3.4118  -3.3866  -3.3440  -3.2801  -3.2319  -3.1507  -3.1205
    -3.0782  -2.9695  -2.9162  -2.8549  -2.8047  -2.7346  -2.7251  -2.6431
    -2.6193  -2.5791  -2.5589  -2.5297  -2.4599  -2.4437  -2.3757  -2.2616
    -2.1919  -2.1766  -2.1498  -2.0017  -1.9451  -1.8459  -1.7977  -1.7650
    -1.7004  -1.6630  -1.6280  -1.5730  -1.5422  -1.5085  -1.4271  -1.3914
    -1.3239  -1.2987  -1.2685  -1.2382  -1.2216  -1.2073  -1.1770  -1.1620
    -1.1082  -1.0148  -1.0061  -0.9789  -0.9056  -0.8696  -0.8454  -0.5327
     0.2314   0.6570   1.7722   1.9831   2.1254   2.7869   3.2857   3.4012
     3.4943   4.0615   4.3659   4.8508   5.2853   5.4933   5.7050   6.1553
     6.6532   6.8168

          k = 0.2500-0.4660 0.0000 ( 30312 PWs)   bands (ev):

   -46.4973  -4.1066  -4.0493  -3.8986  -3.8637  -3.8132  -3.7901  -3.5554
    -3.5512  -3.3926  -3.3441  -3.2950  -3.2614  -3.2555  -3.2478  -3.1743
    -3.1166  -2.9311  -2.8756  -2.8577  -2.7932  -2.7398  -2.7318  -2.6315
    -2.6186  -2.6034  -2.5643  -2.5312  -2.5030  -2.4337  -2.3644  -2.2631
    -2.1892  -2.1639  -2.1581  -1.9284  -1.9155  -1.8919  -1.8368  -1.7413
    -1.6971  -1.6641  -1.6518  -1.5637  -1.5268  -1.4623  -1.4165  -1.3316
    -1.2972  -1.2605  -1.2526  -1.2301  -1.1915  -1.1489  -1.1365  -1.0673
    -1.0583  -1.0433  -1.0334  -0.9728  -0.9614  -0.9263  -0.9082  -0.3655
    -0.3137   1.0166   1.1786   2.4560   2.5064   2.5819   2.8065   3.4377
     3.4833   3.6252   4.3810   4.7659   5.1633   5.3252   5.5995   6.3847
     6.6620   6.8727

          k = 0.2500-0.3495 0.0000 ( 30286 PWs)   bands (ev):

   -46.4972  -4.1224  -4.0826  -3.9750  -3.8448  -3.7999  -3.7747  -3.5913
    -3.5363  -3.4118  -3.3866  -3.3440  -3.2801  -3.2319  -3.1507  -3.1205
    -3.0782  -2.9695  -2.9162  -2.8549  -2.8047  -2.7346  -2.7251  -2.6431
    -2.6193  -2.5791  -2.5589  -2.5297  -2.4599  -2.4437  -2.3757  -2.2616
    -2.1919  -2.1766  -2.1498  -2.0017  -1.9451  -1.8459  -1.7977  -1.7650
    -1.7004  -1.6630  -1.6280  -1.5730  -1.5422  -1.5085  -1.4271  -1.3914
    -1.3239  -1.2987  -1.2685  -1.2382  -1.2216  -1.2073  -1.1770  -1.1620
    -1.1082  -1.0148  -1.0061  -0.9789  -0.9056  -0.8696  -0.8454  -0.5327
     0.2314   0.6570   1.7722   1.9831   2.1254   2.7869   3.2857   3.4012
     3.4943   4.0615   4.3659   4.8508   5.2853   5.4934   5.7051   6.1553
     6.6532   6.8169

          k = 0.2500-0.2330 0.0000 ( 30302 PWs)   bands (ev):

   -46.4972  -4.4256  -4.0188  -3.9200  -3.8818  -3.7218  -3.7164  -3.6254
    -3.5999  -3.4799  -3.4037  -3.3135  -3.2148  -3.1958  -3.1229  -3.0591
    -3.0304  -2.9383  -2.9296  -2.8801  -2.8071  -2.7650  -2.7191  -2.6984
    -2.6357  -2.5774  -2.5631  -2.4918  -2.4658  -2.4172  -2.3774  -2.2474
    -2.2225  -2.1753  -2.1026  -2.0956  -1.9715  -1.9365  -1.8720  -1.8008
    -1.7184  -1.7092  -1.6596  -1.6012  -1.5598  -1.5221  -1.4978  -1.4620
    -1.3634  -1.3498  -1.3249  -1.3033  -1.2763  -1.2733  -1.2031  -1.1638
    -1.0814  -1.0537  -1.0275  -0.9932  -0.9692  -0.8584  -0.8444  -0.1030
     0.4376   1.1011   1.5966   1.7628   2.1978   3.0457   3.3122   3.7111
     4.1044   4.2708   4.6725   5.2724   5.4761   5.6418   5.9010   6.2184
     6.4798   6.7895

          k = 0.2500-0.1165 0.0000 ( 30338 PWs)   bands (ev):

   -46.4973  -4.6659  -4.0106  -3.9382  -3.8321  -3.7217  -3.6999  -3.5624
    -3.5080  -3.4899  -3.3517  -3.2727  -3.2217  -3.1618  -3.1352  -3.0366
    -2.9774  -2.9529  -2.9322  -2.8773  -2.8120  -2.7636  -2.7317  -2.6631
    -2.6548  -2.6204  -2.5654  -2.5262  -2.4739  -2.4277  -2.3566  -2.3282
    -2.2487  -2.2101  -2.1617  -2.1406  -2.0185  -2.0044  -1.9204  -1.8782
    -1.8329  -1.7600  -1.7431  -1.6961  -1.5824  -1.5388  -1.4762  -1.4069
    -1.3871  -1.3743  -1.3384  -1.3259  -1.2874  -1.2742  -1.1809  -1.1661
    -1.0768  -1.0458  -1.0160  -0.9884  -0.9459  -0.8880  -0.8337  -0.2141
     0.5769   1.3905   1.7017   1.8894   2.8301   2.9964   3.5318   4.1276
     4.4601   4.5774   4.9275   5.2628   5.6977   5.9524   6.0405   6.1266
     6.4081   6.8965

          k = 0.3750-0.0000 0.0000 ( 30267 PWs)   bands (ev):

   -46.4972  -4.2727  -4.0295  -3.7880  -3.7193  -3.6441  -3.5673  -3.5096
    -3.4960  -3.4655  -3.4612  -3.2556  -3.1744  -3.0944  -3.0746  -2.9940
    -2.9780  -2.9755  -2.9138  -2.8900  -2.8438  -2.7677  -2.7142  -2.6666
    -2.6009  -2.5880  -2.5663  -2.5360  -2.5155  -2.5137  -2.3939  -2.3802
    -2.2950  -2.2531  -2.2104  -2.1236  -2.1124  -2.0474  -1.9781  -1.9560
    -1.8165  -1.7486  -1.7228  -1.6695  -1.5906  -1.5509  -1.5406  -1.4811
    -1.4298  -1.3892  -1.2695  -1.2574  -1.2201  -1.2115  -1.1637  -1.1179
    -1.0701  -1.0123  -1.0074  -0.9280  -0.9177  -0.8844  -0.8152  -0.7420
     0.2213   0.4726   1.8911   2.0978   3.0695   3.2782   3.5913   3.7170
     4.4142   4.8014   4.9505   5.1374   5.7176   6.0919   6.4130   6.4852
     6.5944   6.8258

          k = 0.3750 0.1165 0.0000 ( 30287 PWs)   bands (ev):

   -46.4972  -4.2009  -4.0000  -3.8063  -3.7307  -3.6836  -3.6463  -3.5581
    -3.5190  -3.4399  -3.3759  -3.3330  -3.2964  -3.1302  -3.0884  -3.0610
    -2.9519  -2.9420  -2.9303  -2.8984  -2.8197  -2.8045  -2.7025  -2.6725
    -2.6368  -2.5877  -2.5588  -2.5310  -2.4699  -2.4192  -2.3767  -2.2937
    -2.2563  -2.2310  -2.1565  -2.0825  -2.0533  -2.0315  -1.9064  -1.8621
    -1.8226  -1.7091  -1.6997  -1.6149  -1.5891  -1.5766  -1.5546  -1.4937
    -1.4413  -1.3985  -1.3094  -1.2709  -1.2311  -1.1958  -1.1856  -1.1249
    -1.0833  -1.0304  -1.0002  -0.9322  -0.9133  -0.8507  -0.8256  -0.5086
     0.2584   0.5741   1.9200   2.1464   2.1683   3.3063   3.5426   3.6842
     3.7194   4.5560   4.9141   5.0801   5.4569   5.7951   6.0659   6.4551
     6.6662   6.8633

          k = 0.3750 0.2330 0.0000 ( 30255 PWs)   bands (ev):

   -46.4972  -4.0315  -3.9602  -3.9143  -3.8451  -3.6744  -3.6190  -3.6072
    -3.5192  -3.4951  -3.4380  -3.3879  -3.3255  -3.1698  -3.1339  -3.0946
    -3.0062  -2.9922  -2.9433  -2.8928  -2.8822  -2.8457  -2.7553  -2.6755
    -2.6226  -2.5697  -2.5268  -2.4726  -2.3665  -2.3301  -2.2939  -2.2302
    -2.1797  -2.1585  -2.1146  -2.0547  -1.9458  -1.8955  -1.8707  -1.7418
    -1.7159  -1.6663  -1.6337  -1.6198  -1.5588  -1.5328  -1.5055  -1.4646
    -1.4052  -1.3667  -1.3283  -1.2562  -1.2266  -1.1949  -1.1521  -1.1302
    -1.0612  -1.0283  -0.9694  -0.9473  -0.9172  -0.8526  -0.8096  -0.0551
     0.4061   0.8265   0.9637   2.0912   2.1866   2.4539   2.8958   3.4810
     3.6962   3.8041   4.0691   4.7093   5.2498   5.4320   5.7461   6.2420
     6.6424   6.8784

          k = 0.3750 0.3495 0.0000 ( 30296 PWs)   bands (ev):

   -46.4973  -4.0664  -4.0066  -3.8325  -3.7979  -3.7907  -3.6921  -3.5956
    -3.5014  -3.4465  -3.4157  -3.3708  -3.3228  -3.1986  -3.1627  -3.1290
    -3.0701  -3.0199  -2.9799  -2.9179  -2.8969  -2.8431  -2.8260  -2.6597
    -2.6413  -2.5152  -2.4510  -2.4126  -2.3776  -2.3466  -2.2451  -2.2226
    -2.1537  -2.1047  -2.0929  -1.9506  -1.9237  -1.8551  -1.7965  -1.7537
    -1.6891  -1.6403  -1.6187  -1.5673  -1.5116  -1.4857  -1.4391  -1.3875
    -1.3335  -1.3093  -1.2640  -1.1804  -1.1635  -1.1314  -1.0844  -1.0547
    -1.0274  -1.0050  -0.9913  -0.9570  -0.8639  -0.8255  -0.6139  -0.0743
     0.4943   0.7144   1.1514   1.3548   1.9697   2.3650   2.6542   2.7369
     3.0376   3.5732   3.6834   4.4689   4.8939   5.0466   5.6696   6.2619
     6.5381   6.8843

          k = 0.3750-0.4660 0.0000 ( 30298 PWs)   bands (ev):

   -46.4973  -4.1035  -4.0422  -3.8544  -3.8042  -3.7258  -3.6711  -3.5826
    -3.5447  -3.4833  -3.4266  -3.3157  -3.2764  -3.1730  -3.1598  -3.1434
    -3.1075  -3.0801  -2.9904  -2.9067  -2.8956  -2.8242  -2.7708  -2.7019
    -2.6487  -2.5377  -2.4882  -2.3659  -2.3307  -2.2788  -2.2306  -2.2290
    -2.1791  -2.0835  -2.0675  -1.9838  -1.9649  -1.8284  -1.7814  -1.7608
    -1.7292  -1.6154  -1.5997  -1.5357  -1.4861  -1.4734  -1.4195  -1.3904
    -1.3290  -1.2755  -1.2189  -1.1650  -1.1251  -1.0351  -1.0272  -1.0222
    -1.0071  -0.9977  -0.9896  -0.8515  -0.8476  -0.7335  -0.7131   0.0412
     0.0805   1.1425   1.1701   1.4841   1.6186   2.0090   2.1662   2.8752
     3.0492   3.2848   3.4826   4.4064   4.8151   4.8760   5.6123   6.2502
     6.6007   7.1134

          k = 0.3750-0.3495 0.0000 ( 30296 PWs)   bands (ev):

   -46.4973  -4.0664  -4.0066  -3.8325  -3.7979  -3.7907  -3.6921  -3.5956
    -3.5014  -3.4465  -3.4157  -3.3708  -3.3228  -3.1986  -3.1627  -3.1290
    -3.0701  -3.0199  -2.9799  -2.9179  -2.8969  -2.8431  -2.8260  -2.6597
    -2.6413  -2.5152  -2.4510  -2.4126  -2.3776  -2.3466  -2.2451  -2.2226
    -2.1537  -2.1047  -2.0929  -1.9506  -1.9237  -1.8551  -1.7965  -1.7537
    -1.6891  -1.6403  -1.6187  -1.5673  -1.5116  -1.4857  -1.4391  -1.3875
    -1.3335  -1.3093  -1.2640  -1.1804  -1.1635  -1.1314  -1.0844  -1.0547
    -1.0274  -1.0050  -0.9913  -0.9570  -0.8639  -0.8255  -0.6139  -0.0743
     0.4943   0.7144   1.1514   1.3548   1.9697   2.3650   2.6542   2.7369
     3.0376   3.5732   3.6834   4.4689   4.8940   5.0466   5.6696   6.2619
     6.5380   6.8843

          k = 0.3750-0.2330 0.0000 ( 30255 PWs)   bands (ev):

   -46.4972  -4.0315  -3.9602  -3.9143  -3.8451  -3.6744  -3.6190  -3.6072
    -3.5192  -3.4951  -3.4380  -3.3879  -3.3255  -3.1698  -3.1339  -3.0946
    -3.0062  -2.9922  -2.9433  -2.8928  -2.8822  -2.8457  -2.7553  -2.6755
    -2.6226  -2.5697  -2.5268  -2.4726  -2.3665  -2.3301  -2.2939  -2.2302
    -2.1797  -2.1585  -2.1146  -2.0547  -1.9458  -1.8955  -1.8707  -1.7418
    -1.7159  -1.6663  -1.6337  -1.6198  -1.5588  -1.5328  -1.5055  -1.4646
    -1.4052  -1.3667  -1.3283  -1.2562  -1.2266  -1.1949  -1.1521  -1.1302
    -1.0612  -1.0283  -0.9694  -0.9473  -0.9172  -0.8526  -0.8096  -0.0551
     0.4061   0.8265   0.9637   2.0912   2.1866   2.4539   2.8958   3.4810
     3.6962   3.8041   4.0691   4.7093   5.2498   5.4320   5.7461   6.2420
     6.6425   6.8783

          k = 0.3750-0.1165 0.0000 ( 30287 PWs)   bands (ev):

   -46.4972  -4.2009  -4.0000  -3.8063  -3.7307  -3.6836  -3.6463  -3.5581
    -3.5190  -3.4399  -3.3759  -3.3330  -3.2964  -3.1302  -3.0884  -3.0610
    -2.9519  -2.9420  -2.9303  -2.8984  -2.8197  -2.8045  -2.7025  -2.6725
    -2.6368  -2.5877  -2.5588  -2.5310  -2.4699  -2.4192  -2.3767  -2.2937
    -2.2563  -2.2310  -2.1565  -2.0825  -2.0533  -2.0315  -1.9064  -1.8621
    -1.8226  -1.7091  -1.6997  -1.6149  -1.5891  -1.5766  -1.5546  -1.4937
    -1.4413  -1.3985  -1.3094  -1.2709  -1.2311  -1.1958  -1.1856  -1.1249
    -1.0833  -1.0304  -1.0002  -0.9322  -0.9133  -0.8507  -0.8256  -0.5086
     0.2584   0.5741   1.9200   2.1464   2.1683   3.3063   3.5426   3.6842
     3.7194   4.5560   4.9141   5.0801   5.4569   5.7952   6.0659   6.4551
     6.6662   6.8634

          k =-0.5000 0.0000 0.0000 ( 30196 PWs)   bands (ev):

   -46.4971  -3.9027  -3.9011  -3.8623  -3.8522  -3.5919  -3.5885  -3.5050
    -3.5013  -3.3778  -3.3691  -3.3172  -3.3106  -3.0200  -3.0127  -2.9915
    -2.9639  -2.9595  -2.9531  -2.8258  -2.8202  -2.7651  -2.7565  -2.6582
    -2.6491  -2.5842  -2.5746  -2.4937  -2.4817  -2.4273  -2.3916  -2.3300
    -2.3264  -2.2550  -2.2266  -2.0989  -2.0873  -2.0132  -2.0025  -1.9535
    -1.9491  -1.9174  -1.8936  -1.7437  -1.7292  -1.5499  -1.5299  -1.3789
    -1.3782  -1.3024  -1.3005  -1.2489  -1.2398  -1.1827  -1.1616  -1.0035
    -1.0007  -0.9877  -0.9748  -0.9510  -0.9422  -0.9147  -0.9036  -0.5155
    -0.4851   0.9837   1.0519   2.6478   2.6896   3.3896   3.4584   3.8139
     4.2077   4.8235   5.0606   5.3284   5.6619   6.4015   6.4330   6.5015
     6.6663   6.7017

          k =-0.5000 0.1165 0.0000 ( 30222 PWs)   bands (ev):

   -46.4972  -3.8748  -3.8746  -3.8063  -3.7970  -3.6731  -3.6704  -3.5804
    -3.5779  -3.3829  -3.3779  -3.3040  -3.2976  -3.1484  -3.1386  -2.9973
    -2.9874  -2.9382  -2.9339  -2.8963  -2.8659  -2.7601  -2.7506  -2.6327
    -2.6228  -2.5325  -2.5236  -2.4433  -2.4276  -2.3904  -2.3759  -2.3191
    -2.3132  -2.1267  -2.1060  -2.0729  -2.0597  -1.9886  -1.9850  -1.9359
    -1.9228  -1.8920  -1.8841  -1.6721  -1.6406  -1.5595  -1.5469  -1.4363
    -1.4350  -1.2871  -1.2760  -1.2433  -1.2270  -1.1169  -1.1098  -1.0095
    -1.0028  -0.9984  -0.9892  -0.9561  -0.9492  -0.8913  -0.8782  -0.4393
    -0.4072   1.0316   1.1057   2.6625   2.7194   2.8186   2.8648   3.8441
     4.1492   4.1923   4.3406   5.2177   5.6684   5.7951   6.0361   6.4812
     6.7057   7.0939

          k =-0.5000 0.2330 0.0000 ( 30230 PWs)   bands (ev):

   -46.4972  -3.8312  -3.8279  -3.8130  -3.8116  -3.7566  -3.7562  -3.6307
    -3.6277  -3.3879  -3.3832  -3.2869  -3.2821  -3.1940  -3.1849  -3.1261
    -3.1216  -3.0260  -3.0231  -2.9445  -2.9086  -2.7626  -2.7475  -2.6556
    -2.6468  -2.5069  -2.4949  -2.3435  -2.3307  -2.2978  -2.2869  -2.1750
    -2.1744  -2.0541  -2.0395  -2.0028  -1.9990  -1.9607  -1.9434  -1.8833
    -1.8784  -1.7391  -1.7243  -1.6029  -1.5752  -1.4949  -1.4734  -1.4340
    -1.4326  -1.2937  -1.2846  -1.2735  -1.2478  -1.0617  -1.0491  -1.0299
    -1.0236  -0.9433  -0.9372  -0.8780  -0.8737  -0.8306  -0.8167  -0.2134
    -0.1756   1.1964   1.2865   1.7345   1.7809   2.7729   2.8623   3.0042
     3.1112   3.8841   4.0775   4.6050   5.1177   5.2415   5.6799   6.4239
     6.7687   6.9096

          k =-0.5000 0.3495 0.0000 ( 30248 PWs)   bands (ev):

   -46.4972  -3.9463  -3.9436  -3.8794  -3.8790  -3.7145  -3.7132  -3.5808
    -3.5803  -3.3700  -3.3569  -3.2944  -3.2899  -3.2089  -3.2078  -3.1334
    -3.1250  -3.0698  -3.0651  -2.9654  -2.9473  -2.8150  -2.7969  -2.7094
    -2.6928  -2.4928  -2.4837  -2.3407  -2.3226  -2.1698  -2.1612  -2.0757
    -2.0711  -1.9911  -1.9908  -1.9733  -1.9601  -1.9014  -1.8870  -1.8524
    -1.8485  -1.7654  -1.7499  -1.6400  -1.6333  -1.3622  -1.3390  -1.3048
    -1.2950  -1.2297  -1.2186  -1.1891  -1.1708  -1.0935  -1.0777  -1.0388
    -1.0298  -0.9207  -0.9120  -0.8949  -0.8893  -0.4652  -0.4531   0.1922
     0.2357   0.7832   0.8277   1.4937   1.5606   1.8923   2.0657   2.8951
     3.0378   3.3800   3.3832   4.4442   4.7922   4.8024   5.6050   6.2564
     6.6394   7.0736

          k =-0.5000-0.4660 0.0000 ( 30304 PWs)   bands (ev):

   -46.4973  -3.9890  -3.9862  -3.9224  -3.9224  -3.6536  -3.6514  -3.5924
    -3.5916  -3.3931  -3.3787  -3.3241  -3.3170  -3.1988  -3.1910  -3.1348
    -3.1267  -3.0115  -3.0053  -2.9294  -2.9171  -2.8601  -2.8505  -2.7596
    -2.7462  -2.4484  -2.4275  -2.3506  -2.3413  -2.1258  -2.1135  -2.0922
    -2.0834  -1.9762  -1.9649  -1.9298  -1.9056  -1.8960  -1.8901  -1.8485
    -1.8473  -1.7768  -1.7556  -1.6930  -1.6926  -1.3362  -1.3092  -1.2415
    -1.2381  -1.2120  -1.1953  -1.1601  -1.1489  -1.0229  -1.0062  -0.9939
    -0.9821  -0.9368  -0.9283  -0.9189  -0.9151   0.0381   0.0428   0.0517
     0.0824   0.8323   0.8970   0.9077   0.9559   2.0781   2.3784   2.3941
     2.4366   3.2948   3.3463   4.3820   4.6673   4.6865   5.6637   6.1005
     6.4415   7.1883

     the Fermi energy is     1.9977 ev

!    total energy              =   -1026.24458816 Ry
     estimated scf accuracy    <       0.00000070 Ry
     smearing contrib. (-TS)   =      -0.00097084 Ry
     internal energy E=F+TS    =   -1026.24361732 Ry

     The total energy is F=E-TS. E is the sum of the following terms:
     one-electron contribution =  -10533.33407759 Ry
     hartree contribution      =    5361.04836358 Ry
     xc contribution           =    -271.33201837 Ry
     ewald contribution        =    4417.69071061 Ry
     DFT-D3 Dispersion         =      -0.31659555 Ry

     convergence has been achieved in  11 iterations

     negative rho (up, down):  3.164E-05 0.000E+00

     Forces acting on atoms (cartesian axes, Ry/au):

     atom    1 type  2   force =     0.00000184    0.00167098    0.01454309
     atom    2 type  2   force =    -0.00000178    0.00464805    0.01321989
     atom    3 type  2   force =     0.00000019   -0.00108139   -0.00035165
     atom    4 type  2   force =     0.00000061    0.00114406    0.00244900
     atom    5 type  2   force =    -0.00000015    0.00144983   -0.00460643
     atom    6 type  2   force =    -0.00000005   -0.00265766   -0.00443627
     atom    7 type  2   force =     0.00000017    0.00258949    0.00271308
     atom    8 type  2   force =     0.00000118   -0.00244294    0.00342831
     atom    9 type  2   force =    -0.00000094   -0.00087328   -0.00637627
     atom   10 type  2   force =    -0.00000057   -0.00008174   -0.00634124
     atom   11 type  2   force =     0.00000010    0.00212900    0.00893722
     atom   12 type  2   force =    -0.00000056   -0.00059200    0.00943493
     atom   13 type  1   force =    -0.00000003   -0.00590239   -0.03261365
     The non-local contrib.  to forces
     atom    1 type  2   force =    -0.00000017    0.01077256    0.06581521
     atom    2 type  2   force =    -0.00000069   -0.00859783    0.06032759
     atom    3 type  2   force =     0.00000033    0.00951065    0.00617225
     atom    4 type  2   force =     0.00000133   -0.01376629   -0.00225527
     atom    5 type  2   force =     0.00000003    0.00128305    0.00137927
     atom    6 type  2   force =     0.00000081   -0.00237902    0.00361151
     atom    7 type  2   force =    -0.00000009    0.00204130   -0.00739398
     atom    8 type  2   force =     0.00000084   -0.00315349   -0.00946694
     atom    9 type  2   force =     0.00000020    0.01597973   -0.00821655
     atom   10 type  2   force =    -0.00000057   -0.01787062   -0.00394149
     atom   11 type  2   force =     0.00000137    0.01540172   -0.13146767
     atom   12 type  2   force =    -0.00000123   -0.03637961   -0.12965496
     atom   13 type  1   force =    -0.00000013    0.00814984    0.04822289
     The ionic contribution  to forces
     atom    1 type  2   force =     0.00001371   10.51015696  110.94927405
     atom    2 type  2   force =    -0.00000577    7.64010082  111.08895244
     atom    3 type  2   force =     0.00000114    5.41994043   70.98777905
     atom    4 type  2   force =    -0.00000810    6.30765998   70.54039802
     atom    5 type  2   force =     0.00000059    1.81070121   20.49535790
     atom    6 type  2   force =    -0.00000120    1.56024394   20.51519098
     atom    7 type  2   force =     0.00000021   -2.13703670  -26.74585671
     atom    8 type  2   force =     0.00000010   -2.27252735  -26.74233364
     atom    9 type  2   force =     0.00000000   -6.76288647  -75.84217141
     atom   10 type  2   force =    -0.00000002   -5.75502526  -75.92518929
     atom   11 type  2   force =     0.00000000   -7.57021922 -116.49205132
     atom   12 type  2   force =    -0.00000000  -11.61840349 -116.15833959
     atom   13 type  1   force =    -0.00000067    2.86729515   33.32898953
     The local contribution  to forces
     atom    1 type  2   force =    -0.00001595  -10.51891347 -110.98735598
     atom    2 type  2   force =     0.00000478   -7.62386361 -111.12356161
     atom    3 type  2   force =     0.00000021   -5.42992033  -70.98846147
     atom    4 type  2   force =     0.00001102   -6.29217346  -70.52907881
     atom    5 type  2   force =     0.00000188   -1.81028373  -20.49883423
     atom    6 type  2   force =     0.00000040   -1.56042353  -20.52074319
     atom    7 type  2   force =     0.00000173    2.13741723   26.75372336
     atom    8 type  2   force =    -0.00000383    2.27305458   26.75299605
     atom    9 type  2   force =     0.00000274    6.74533494   75.83561570
     atom   10 type  2   force =    -0.00000259    5.77210410   75.91438864
     atom   11 type  2   force =     0.00000149    7.55580977  116.62230347
     atom   12 type  2   force =    -0.00000226   11.65364857  116.28723440
     atom   13 type  1   force =     0.00000071   -2.88233791  -33.40908965
     The core correction contribution to forces
     atom    1 type  2   force =    -0.00000014   -0.00082968   -0.00619066
     atom    2 type  2   force =     0.00000003   -0.00038167   -0.00584218
     atom    3 type  2   force =     0.00000010   -0.00009381   -0.00134000
     atom    4 type  2   force =     0.00000013   -0.00009338   -0.00077861
     atom    5 type  2   force =     0.00000007   -0.00003263    0.00033600
     atom    6 type  2   force =     0.00000000    0.00008679    0.00035959
     atom    7 type  2   force =     0.00000001   -0.00001120   -0.00014733
     atom    8 type  2   force =    -0.00000012   -0.00001526   -0.00013809
     atom    9 type  2   force =     0.00000004    0.00017121    0.00253596
     atom   10 type  2   force =    -0.00000003    0.00024684    0.00254463
     atom   11 type  2   force =     0.00000002   -0.00093708    0.00585478
     atom   12 type  2   force =    -0.00000006    0.00188067    0.00561396
     atom   13 type  1   force =     0.00000000    0.00000000    0.00000000
     The Hubbard contrib.    to forces
     atom    1 type  2   force =     0.00000000    0.00000000    0.00000000
     atom    2 type  2   force =     0.00000000    0.00000000    0.00000000
     atom    3 type  2   force =     0.00000000    0.00000000    0.00000000
     atom    4 type  2   force =     0.00000000    0.00000000    0.00000000
     atom    5 type  2   force =     0.00000000    0.00000000    0.00000000
     atom    6 type  2   force =     0.00000000    0.00000000    0.00000000
     atom    7 type  2   force =     0.00000000    0.00000000    0.00000000
     atom    8 type  2   force =     0.00000000    0.00000000    0.00000000
     atom    9 type  2   force =     0.00000000    0.00000000    0.00000000
     atom   10 type  2   force =     0.00000000    0.00000000    0.00000000
     atom   11 type  2   force =     0.00000000    0.00000000    0.00000000
     atom   12 type  2   force =     0.00000000    0.00000000    0.00000000
     atom   13 type  1   force =     0.00000000    0.00000000    0.00000000
     The SCF correction term to forces
     atom    1 type  2   force =     0.00000458    0.00002751   -0.00192299
     atom    2 type  2   force =     0.00000003   -0.00036776   -0.00188362
     atom    3 type  2   force =    -0.00000142   -0.00021744   -0.00087056
     atom    4 type  2   force =    -0.00000361    0.00003118   -0.00098657
     atom    5 type  2   force =    -0.00000255   -0.00005302   -0.00086641
     atom    6 type  2   force =     0.00000012   -0.00004910   -0.00087256
     atom    7 type  2   force =    -0.00000153    0.00002857   -0.00028012
     atom    8 type  2   force =     0.00000437   -0.00009658   -0.00029542
     atom    9 type  2   force =    -0.00000376   -0.00003275    0.00062785
     atom   10 type  2   force =     0.00000281    0.00015106    0.00060365
     atom   11 type  2   force =    -0.00000262    0.00020241    0.00043354
     atom   12 type  2   force =     0.00000316   -0.00013239    0.00046282
     atom   13 type  1   force =     0.00000022   -0.00006709   -0.00034461

     DFT-D3 dispersion contribution to forces:
     atom    1 type  2   force =    -0.00000001    0.00044637   -0.00516258
     atom    2 type  2   force =     0.00000000   -0.00225263   -0.00485877
     atom    3 type  2   force =     0.00000000   -0.00031163   -0.00371695
     atom    4 type  2   force =     0.00000000   -0.00052470   -0.00493579
     atom    5 type  2   force =     0.00000000   -0.00017576   -0.00206499
     atom    6 type  2   force =     0.00000000   -0.00014747   -0.00206863
     atom    7 type  2   force =     0.00000000    0.00013956    0.00258182
     atom    8 type  2   force =     0.00000000    0.00028443    0.00258033
     atom    9 type  2   force =    -0.00000000    0.00054933    0.00514615
     atom   10 type  2   force =    -0.00000000    0.00030142    0.00516658
     atom   11 type  2   force =    -0.00000000    0.00186067    0.00377839
     atom   12 type  2   force =    -0.00000000   -0.00121647    0.00403226
     atom   13 type  1   force =    -0.00000000    0.00104688   -0.00047785

     Total force =     0.043070     Total SCF correction =     0.003496


     Computing stress (Cartesian axis) and pressure


     negative rho (up, down):  3.164E-05 0.000E+00
          total   stress  (Ry/bohr**3)                   (kbar)     P=      -17.24
  -0.00010978   0.00000000   0.00000000          -16.15        0.00        0.00
   0.00000000  -0.00013793   0.00000100            0.00      -20.29        0.15
   0.00000000   0.00000100  -0.00010398            0.00        0.15      -15.30


     BFGS Geometry Optimization
     Energy error            =      0.0E+00 Ry
     Gradient error          =      3.3E-02 Ry/Bohr

     number of scf cycles    =   1
     number of bfgs steps    =   0

     energy             new  =   -1026.2445881562 Ry

     new trust radius        =       0.0331434551 bohr
     new conv_thr            =       0.0000010000 Ry


ATOMIC_POSITIONS (angstrom)
Ag            1.1754144259        1.1362168323       17.2564150913
Ag            3.5262445662        4.5010439009       16.9783246605
Ag            1.1754152416        3.5388804490       15.6864104809
Ag            3.5262462688        1.8716195490       15.8255070994
Ag            1.1754153743        0.9015603792       14.4008485912
Ag            3.5262463317        4.2623479209       14.1235662744
Ag            1.1754155418        3.3042785587       12.7404877518
Ag            3.5262469831        1.6201349407       12.8795524136
Ag            1.1754149554        0.6601195302       11.4875022534
Ag            3.5262460547        4.0234995332       11.2101484306
Ag            1.1754155037        3.0638233671        9.8313716484
Ag            3.5262460588        1.3809029048        9.9703212058
Li            3.5262447226        2.4176920537       19.2314608199



     Writing config-only to output data dir ./Ag_mp-10597_110_hollow_1/Ag_mp-10597_110_hollow_1.save/
     NEW-OLD atomic charge density approx. for the potential

     negative rho (up, down):  3.204E-05 0.000E+00

     total cpu time spent up to now is       33.1 secs

     per-process dynamical memory:   194.7 Mb

     Self-consistent Calculation

     iteration #  1     ecut=    55.00 Ry     beta= 0.30
     Davidson diagonalization with overlap
     ethr =  1.00E-06,  avg # of iterations =  4.0

     Threshold (ethr) on eigenvalues was too large:
     Diagonalizing with lowered threshold

     Davidson diagonalization with overlap
     ethr =  1.81E-08,  avg # of iterations =  6.0

     negative rho (up, down):  3.149E-05 0.000E+00

     total cpu time spent up to now is       38.1 secs

     total energy              =   -1026.24640870 Ry
     estimated scf accuracy    <       0.00003132 Ry

     iteration #  2     ecut=    55.00 Ry     beta= 0.30
     Davidson diagonalization with overlap
     ethr =  2.32E-08,  avg # of iterations =  2.0

     negative rho (up, down):  4.391E-05 0.000E+00

     total cpu time spent up to now is       39.3 secs

     total energy              =   -1026.24639616 Ry
     estimated scf accuracy    <       0.00034435 Ry

     iteration #  3     ecut=    55.00 Ry     beta= 0.30
     Davidson diagonalization with overlap
     ethr =  2.32E-08,  avg # of iterations =  1.6

     negative rho (up, down):  4.764E-05 0.000E+00

     total cpu time spent up to now is       40.5 secs

     total energy              =   -1026.24641360 Ry
     estimated scf accuracy    <       0.00003708 Ry

     iteration #  4     ecut=    55.00 Ry     beta= 0.30
     Davidson diagonalization with overlap
     ethr =  2.32E-08,  avg # of iterations =  1.1

     negative rho (up, down):  3.974E-05 0.000E+00

     total cpu time spent up to now is       41.6 secs

     total energy              =   -1026.24641581 Ry
     estimated scf accuracy    <       0.00000826 Ry

     iteration #  5     ecut=    55.00 Ry     beta= 0.30
     Davidson diagonalization with overlap
     ethr =  6.12E-09,  avg # of iterations =  1.6

     negative rho (up, down):  3.210E-05 0.000E+00

     total cpu time spent up to now is       42.7 secs

     End of self-consistent calculation

          k = 0.0000 0.0000 0.0000 ( 30377 PWs)   bands (ev):

   -46.4741  -5.2104  -4.1687  -4.0029  -3.8580  -3.8132  -3.7391  -3.6368
    -3.5309  -3.5124  -3.4616  -3.3795  -3.2735  -3.1762  -3.1607  -3.0101
    -2.8771  -2.8628  -2.8460  -2.8412  -2.7758  -2.7420  -2.7182  -2.6551
    -2.5470  -2.4785  -2.4481  -2.4319  -2.4031  -2.3962  -2.3928  -2.3702
    -2.3498  -2.2705  -2.1913  -2.1830  -2.1600  -2.0972  -2.0272  -2.0255
    -2.0045  -1.9849  -1.8601  -1.7884  -1.7063  -1.5793  -1.5129  -1.4719
    -1.4421  -1.3586  -1.3460  -1.3269  -1.3188  -1.1590  -1.1145  -1.0345
    -1.0074  -0.9835  -0.9603  -0.9567  -0.9540  -0.8144  -0.7640  -0.5398
     0.9374   2.3719   2.4892   2.5887   3.5327   3.6885   3.9844   4.2019
     4.3492   4.7852   5.2290   5.5558   5.5813   5.7276   5.8449   6.1522
     6.3749   6.5591

          k = 0.0000 0.1165 0.0000 ( 30371 PWs)   bands (ev):

   -46.4741  -5.1117  -4.1252  -3.9625  -3.8288  -3.7743  -3.7286  -3.6897
    -3.5923  -3.5462  -3.5147  -3.4941  -3.2189  -3.1708  -3.1131  -3.0859
    -2.9628  -2.8777  -2.8542  -2.7981  -2.7577  -2.6892  -2.6377  -2.6362
    -2.4994  -2.4494  -2.4454  -2.4187  -2.3922  -2.3794  -2.3556  -2.3454
    -2.3208  -2.2588  -2.2277  -2.1913  -2.1545  -2.1151  -2.0393  -2.0374
    -2.0203  -1.9014  -1.8982  -1.8017  -1.6523  -1.5766  -1.5271  -1.5252
    -1.4261  -1.3741  -1.3604  -1.3247  -1.3222  -1.1256  -1.1030  -1.0832
    -1.0512  -1.0001  -0.9703  -0.9543  -0.9170  -0.8208  -0.7748  -0.5027
     0.9979   1.4979   2.4563   2.6493   2.7436   3.7072   4.0901   4.3693
     4.8579   4.9553   5.4366   5.6057   5.7093   5.8801   5.9686   6.2428
     6.3815   6.7399

          k = 0.0000 0.2330 0.0000 ( 30367 PWs)   bands (ev):

   -46.4741  -4.8270  -4.0188  -3.8737  -3.8373  -3.7465  -3.7365  -3.7086
    -3.6791  -3.6056  -3.5818  -3.4985  -3.2536  -3.1781  -3.1775  -3.1241
    -3.0120  -2.9306  -2.8411  -2.7589  -2.7007  -2.6918  -2.6140  -2.5605
    -2.5487  -2.4598  -2.4193  -2.3993  -2.3610  -2.3445  -2.3357  -2.3036
    -2.2779  -2.2100  -2.2006  -2.1716  -2.1424  -2.1044  -2.0797  -2.0158
    -1.9547  -1.9431  -1.8213  -1.7558  -1.6093  -1.5837  -1.5591  -1.5425
    -1.5031  -1.3713  -1.3321  -1.3210  -1.3001  -1.1530  -1.1513  -1.1272
    -1.0686  -0.9741  -0.9428  -0.9402  -0.9234  -0.8257  -0.7753  -0.3531
     0.2372   1.2303   1.3969   2.7073   2.8646   3.4085   3.7550   4.6242
     4.8438   5.1792   5.7595   5.8869   6.0149   6.0879   6.4907   6.4970
     6.7542   7.0823

          k = 0.0000 0.3495 0.0000 ( 30339 PWs)   bands (ev):

   -46.4741  -4.4000  -3.9868  -3.9268  -3.8438  -3.7186  -3.6914  -3.6725
    -3.6550  -3.6385  -3.6311  -3.3763  -3.3612  -3.2646  -3.1666  -3.1637
    -3.0009  -2.9478  -2.8379  -2.7692  -2.7260  -2.6948  -2.6816  -2.5777
    -2.5323  -2.5064  -2.5049  -2.4474  -2.4405  -2.3721  -2.3705  -2.2940
    -2.2766  -2.2394  -2.2225  -2.1124  -2.1044  -1.9995  -1.9803  -1.8996
    -1.8745  -1.8397  -1.7619  -1.7210  -1.5927  -1.5859  -1.5469  -1.5257
    -1.4647  -1.4104  -1.3922  -1.3082  -1.2109  -1.1558  -1.1474  -1.1094
    -1.0488  -0.9813  -0.9414  -0.9216  -0.8946  -0.8251  -0.7667  -0.6812
     0.0163   0.3331   1.6652   1.7922   3.0139   3.2475   4.3288   4.5983
     5.0202   5.5537   5.6308   6.1426   6.1729   6.2789   6.5652   6.6143
     6.7828   6.9019

          k = 0.0000-0.4660 0.0000 ( 30242 PWs)   bands (ev):

   -46.4740  -4.0168  -3.9723  -3.9444  -3.9393  -3.7931  -3.7128  -3.6863
    -3.6282  -3.6249  -3.5918  -3.3993  -3.3884  -3.2352  -3.1879  -3.1280
    -2.9860  -2.9013  -2.8596  -2.8541  -2.7825  -2.7053  -2.7020  -2.6202
    -2.5664  -2.5439  -2.4968  -2.4750  -2.4703  -2.4212  -2.3904  -2.2868
    -2.2550  -2.2491  -2.2305  -2.0770  -2.0399  -2.0044  -2.0040  -1.8404
    -1.8184  -1.7634  -1.6907  -1.6639  -1.6479  -1.5951  -1.5287  -1.5066
    -1.4007  -1.3993  -1.3666  -1.3025  -1.2250  -1.2175  -1.1903  -1.0802
    -1.0632  -0.9657  -0.9622  -0.9096  -0.8922  -0.8188  -0.7636  -0.5947
    -0.5282   0.7365   0.8664   2.2008   2.5414   3.3668   4.3959   5.1945
     5.3622   5.4431   5.5296   6.2094   6.3034   6.3398   6.4645   6.4999
     6.6307   6.8164

          k = 0.1250-0.0000 0.0000 ( 30357 PWs)   bands (ev):

   -46.4740  -5.0919  -4.0937  -3.9731  -3.9338  -3.8162  -3.7027  -3.5619
    -3.5372  -3.4586  -3.4316  -3.3267  -3.2556  -3.1559  -3.0682  -3.0183
    -2.9723  -2.9354  -2.8837  -2.8510  -2.8429  -2.7520  -2.7056  -2.6547
    -2.6037  -2.5105  -2.5001  -2.4864  -2.4769  -2.4527  -2.3547  -2.3063
    -2.2450  -2.1998  -2.1899  -2.1555  -2.1247  -2.1099  -2.0808  -2.0207
    -1.9738  -1.9553  -1.8293  -1.6961  -1.6887  -1.6311  -1.5029  -1.4468
    -1.3783  -1.3681  -1.3582  -1.3315  -1.1918  -1.1131  -1.0864  -1.0829
    -1.0751  -1.0348  -1.0129  -0.9561  -0.9385  -0.8862  -0.8459  -0.4598
     1.0395   1.6747   2.4646   2.6449   3.1561   3.6305   3.7204   4.1090
     4.3468   4.8917   4.9977   5.3718   5.6784   5.6827   5.8598   6.3082
     6.6538   6.9168

          k = 0.1250 0.1165 0.0000 ( 30355 PWs)   bands (ev):

   -46.4740  -4.9959  -4.0690  -3.9332  -3.9001  -3.7907  -3.7271  -3.6419
    -3.5789  -3.5325  -3.4619  -3.3551  -3.1957  -3.1638  -3.1020  -3.0117
    -2.9806  -2.9527  -2.8801  -2.8518  -2.7928  -2.7029  -2.6734  -2.6436
    -2.6254  -2.5910  -2.5069  -2.4561  -2.4329  -2.3705  -2.3258  -2.3132
    -2.2502  -2.2332  -2.1629  -2.1427  -2.1169  -2.0953  -2.0182  -2.0039
    -1.9747  -1.8898  -1.8617  -1.7140  -1.6449  -1.6104  -1.5297  -1.4580
    -1.4195  -1.3710  -1.3608  -1.3240  -1.1876  -1.1143  -1.0985  -1.0859
    -1.0789  -1.0542  -1.0488  -0.9750  -0.9010  -0.8893  -0.8570  -0.4327
     1.0934   1.5443   1.9033   2.5525   2.7461   3.2997   3.8211   4.2430
     4.8482   4.9472   4.9906   5.5779   5.7135   5.8273   6.0004   6.3440
     6.7898   6.9671

          k = 0.1250 0.2330 0.0000 ( 30324 PWs)   bands (ev):

   -46.4740  -4.7214  -4.0224  -3.8477  -3.8204  -3.8063  -3.7891  -3.7245
    -3.6941  -3.5694  -3.4544  -3.3339  -3.2161  -3.1895  -3.1421  -3.0862
    -3.0433  -2.9309  -2.9058  -2.7918  -2.7433  -2.7087  -2.6644  -2.6071
    -2.5730  -2.5366  -2.5026  -2.4655  -2.4431  -2.3945  -2.3468  -2.2889
    -2.2516  -2.2025  -2.1847  -2.1569  -2.0395  -2.0213  -2.0019  -1.9507
    -1.9130  -1.7738  -1.7350  -1.7246  -1.6360  -1.5686  -1.5613  -1.4921
    -1.4670  -1.3700  -1.3341  -1.3022  -1.2434  -1.1969  -1.1622  -1.0922
    -1.0593  -1.0311  -1.0137  -0.9343  -0.9132  -0.8898  -0.8489  -0.3064
     0.2679   1.3192   1.4813   2.4836   2.7991   2.9500   3.7327   3.8657
     4.6598   5.2043   5.2880   5.7541   5.8488   6.0094   6.1556   6.4128
     6.8638   7.1477

          k = 0.1250 0.3495 0.0000 ( 30314 PWs)   bands (ev):

   -46.4740  -4.3209  -4.0016  -3.9207  -3.8945  -3.8647  -3.7405  -3.6621
    -3.6444  -3.4888  -3.4203  -3.3573  -3.2895  -3.2703  -3.2025  -3.1006
    -3.0459  -2.9099  -2.8687  -2.7896  -2.7465  -2.7303  -2.6752  -2.6104
    -2.5836  -2.5559  -2.5276  -2.5146  -2.4784  -2.4389  -2.4135  -2.2597
    -2.2226  -2.1989  -2.1865  -2.1348  -2.0273  -1.9904  -1.9623  -1.8647
    -1.8270  -1.7553  -1.6715  -1.6267  -1.5858  -1.5337  -1.4985  -1.4826
    -1.4562  -1.3746  -1.3337  -1.3011  -1.2145  -1.1915  -1.1174  -1.0912
    -1.0490  -1.0140  -0.9954  -0.9553  -0.9109  -0.8721  -0.8273  -0.6586
     0.0528   0.4092   1.7421   1.8768   3.0902   3.2279   3.3323   4.3029
     4.6390   4.9749   5.0633   5.6243   5.6920   6.0119   6.1320   6.3406
     6.6759   6.9451

          k = 0.1250-0.4660 0.0000 ( 30312 PWs)   bands (ev):

   -46.4740  -3.9851  -3.9812  -3.9561  -3.9406  -3.8974  -3.8652  -3.5990
    -3.5811  -3.4362  -3.4088  -3.3810  -3.3808  -3.2677  -3.2655  -3.0413
    -3.0008  -2.8795  -2.8613  -2.8210  -2.8028  -2.7547  -2.7268  -2.6434
    -2.5900  -2.5785  -2.5536  -2.5224  -2.4849  -2.4744  -2.4053  -2.2473
    -2.2332  -2.2037  -2.1794  -2.0767  -2.0316  -1.9929  -1.9508  -1.8379
    -1.8107  -1.7045  -1.6958  -1.6208  -1.5997  -1.5166  -1.4289  -1.4154
    -1.4102  -1.3552  -1.3335  -1.2405  -1.2299  -1.1704  -1.1408  -1.0822
    -1.0684  -1.0183  -0.9912  -0.9720  -0.9659  -0.8939  -0.8435  -0.5243
    -0.4633   0.7937   0.9369   2.2756   2.6084   3.4350   4.0531   4.0987
     4.4491   4.9415   5.1152   5.2597   5.5741   6.0701   6.2535   6.3532
     6.5936   7.0023

          k = 0.1250-0.3495 0.0000 ( 30314 PWs)   bands (ev):

   -46.4740  -4.3209  -4.0016  -3.9207  -3.8945  -3.8647  -3.7405  -3.6621
    -3.6444  -3.4888  -3.4203  -3.3573  -3.2895  -3.2703  -3.2025  -3.1006
    -3.0459  -2.9099  -2.8687  -2.7896  -2.7465  -2.7303  -2.6752  -2.6104
    -2.5836  -2.5559  -2.5276  -2.5146  -2.4784  -2.4389  -2.4135  -2.2597
    -2.2226  -2.1989  -2.1865  -2.1348  -2.0273  -1.9904  -1.9623  -1.8647
    -1.8270  -1.7553  -1.6715  -1.6267  -1.5858  -1.5337  -1.4985  -1.4826
    -1.4562  -1.3746  -1.3337  -1.3011  -1.2145  -1.1915  -1.1174  -1.0912
    -1.0490  -1.0140  -0.9954  -0.9553  -0.9109  -0.8721  -0.8273  -0.6586
     0.0528   0.4092   1.7421   1.8768   3.0902   3.2279   3.3323   4.3029
     4.6390   4.9749   5.0633   5.6243   5.6920   6.0119   6.1320   6.3406
     6.6759   6.9450

          k = 0.1250-0.2330 0.0000 ( 30324 PWs)   bands (ev):

   -46.4740  -4.7214  -4.0224  -3.8477  -3.8204  -3.8063  -3.7891  -3.7245
    -3.6941  -3.5694  -3.4544  -3.3339  -3.2161  -3.1895  -3.1421  -3.0862
    -3.0433  -2.9309  -2.9058  -2.7918  -2.7433  -2.7087  -2.6644  -2.6071
    -2.5730  -2.5366  -2.5026  -2.4655  -2.4431  -2.3945  -2.3468  -2.2889
    -2.2516  -2.2025  -2.1847  -2.1569  -2.0395  -2.0213  -2.0019  -1.9507
    -1.9130  -1.7738  -1.7350  -1.7246  -1.6360  -1.5686  -1.5613  -1.4921
    -1.4670  -1.3700  -1.3341  -1.3022  -1.2434  -1.1969  -1.1622  -1.0922
    -1.0593  -1.0311  -1.0137  -0.9343  -0.9132  -0.8898  -0.8489  -0.3064
     0.2679   1.3192   1.4813   2.4836   2.7991   2.9500   3.7327   3.8657
     4.6598   5.2043   5.2880   5.7541   5.8488   6.0094   6.1556   6.4128
     6.8638   7.1471

          k = 0.1250-0.1165 0.0000 ( 30355 PWs)   bands (ev):

   -46.4740  -4.9959  -4.0690  -3.9332  -3.9001  -3.7907  -3.7271  -3.6419
    -3.5789  -3.5325  -3.4619  -3.3551  -3.1957  -3.1638  -3.1020  -3.0117
    -2.9806  -2.9527  -2.8801  -2.8518  -2.7928  -2.7029  -2.6734  -2.6436
    -2.6254  -2.5910  -2.5069  -2.4561  -2.4329  -2.3705  -2.3258  -2.3132
    -2.2502  -2.2332  -2.1629  -2.1427  -2.1169  -2.0953  -2.0182  -2.0039
    -1.9747  -1.8898  -1.8617  -1.7140  -1.6449  -1.6104  -1.5297  -1.4580
    -1.4195  -1.3710  -1.3608  -1.3240  -1.1876  -1.1143  -1.0985  -1.0859
    -1.0789  -1.0542  -1.0488  -0.9750  -0.9010  -0.8893  -0.8570  -0.4327
     1.0934   1.5443   1.9033   2.5525   2.7461   3.2997   3.8211   4.2430
     4.8482   4.9472   4.9906   5.5779   5.7135   5.8273   6.0004   6.3440
     6.7897   6.9677

          k = 0.2500-0.0000 0.0000 ( 30361 PWs)   bands (ev):

   -46.4740  -4.7538  -4.0430  -3.9041  -3.8798  -3.7071  -3.6075  -3.5458
    -3.4968  -3.4699  -3.3538  -3.2589  -3.1793  -3.1075  -3.1021  -3.0670
    -3.0008  -2.9460  -2.9355  -2.8943  -2.8836  -2.8264  -2.7560  -2.6323
    -2.5958  -2.5758  -2.5363  -2.5192  -2.5082  -2.5022  -2.4124  -2.2986
    -2.2621  -2.2268  -2.2172  -2.1668  -2.0918  -2.0711  -1.9766  -1.9690
    -1.8834  -1.7576  -1.7231  -1.7148  -1.5722  -1.5565  -1.4773  -1.3953
    -1.3829  -1.3638  -1.3503  -1.3361  -1.3259  -1.2666  -1.1973  -1.1225
    -1.0582  -1.0110  -1.0047  -0.9709  -0.9453  -0.9005  -0.8577  -0.2406
     0.3404   1.3509   1.7247   2.7226   2.8520   3.3572   3.7018   3.9504
     4.4385   4.7134   4.8337   5.2098   5.7728   5.9406   6.0047   6.2331
     6.3697   6.9037

          k = 0.2500 0.1165 0.0000 ( 30338 PWs)   bands (ev):

   -46.4740  -4.6665  -4.0114  -3.9374  -3.8334  -3.7233  -3.7015  -3.5610
    -3.5089  -3.4937  -3.3540  -3.2714  -3.2248  -3.1648  -3.1372  -3.0409
    -2.9794  -2.9554  -2.9345  -2.8801  -2.8146  -2.7674  -2.7348  -2.6642
    -2.6572  -2.6248  -2.5680  -2.5289  -2.4767  -2.4311  -2.3613  -2.3319
    -2.2516  -2.2140  -2.1647  -2.1446  -2.0235  -2.0080  -1.9248  -1.8817
    -1.8404  -1.7624  -1.7467  -1.6993  -1.5853  -1.5434  -1.4791  -1.4119
    -1.3899  -1.3781  -1.3407  -1.3294  -1.2941  -1.2785  -1.1848  -1.1703
    -1.0808  -1.0495  -1.0190  -0.9949  -0.9505  -0.8918  -0.8374  -0.2207
     0.5735   1.3896   1.6989   1.8853   2.8411   2.9941   3.5243   4.1420
     4.4548   4.5746   4.9302   5.2771   5.6976   5.9613   6.0497   6.1377
     6.4219   6.8912

          k = 0.2500 0.2330 0.0000 ( 30302 PWs)   bands (ev):

   -46.4740  -4.4262  -4.0166  -3.9209  -3.8855  -3.7190  -3.7178  -3.6268
    -3.6051  -3.4816  -3.4038  -3.3101  -3.2204  -3.1974  -3.1269  -3.0622
    -3.0325  -2.9395  -2.9313  -2.8818  -2.8100  -2.7673  -2.7242  -2.7026
    -2.6395  -2.5780  -2.5667  -2.4924  -2.4704  -2.4214  -2.3822  -2.2509
    -2.2284  -2.1766  -2.1084  -2.1000  -1.9747  -1.9397  -1.8759  -1.8036
    -1.7228  -1.7125  -1.6634  -1.6069  -1.5631  -1.5251  -1.5023  -1.4668
    -1.3670  -1.3529  -1.3279  -1.3081  -1.2805  -1.2769  -1.2104  -1.1668
    -1.0839  -1.0591  -1.0321  -0.9982  -0.9733  -0.8619  -0.8481  -0.1101
     0.4339   1.0976   1.5976   1.7563   2.1929   3.0610   3.3026   3.7035
     4.1144   4.2687   4.6800   5.2756   5.4853   5.6465   5.9117   6.2325
     6.4944   6.8073

          k = 0.2500 0.3495 0.0000 ( 30286 PWs)   bands (ev):

   -46.4740  -4.1234  -4.0793  -3.9791  -3.8422  -3.8006  -3.7789  -3.5933
    -3.5378  -3.4121  -3.3863  -3.3433  -3.2834  -3.2348  -3.1512  -3.1210
    -3.0820  -2.9716  -2.9190  -2.8552  -2.8055  -2.7405  -2.7324  -2.6489
    -2.6233  -2.5818  -2.5598  -2.5306  -2.4638  -2.4432  -2.3823  -2.2661
    -2.1961  -2.1814  -2.1566  -2.0054  -1.9499  -1.8501  -1.8013  -1.7683
    -1.7022  -1.6669  -1.6318  -1.5753  -1.5477  -1.5116  -1.4320  -1.3940
    -1.3263  -1.3015  -1.2741  -1.2425  -1.2252  -1.2115  -1.1824  -1.1646
    -1.1143  -1.0226  -1.0090  -0.9835  -0.9091  -0.8728  -0.8491  -0.5365
     0.2243   0.6511   1.7685   1.9792   2.1200   2.7821   3.2912   3.3987
     3.5058   4.0551   4.3659   4.8613   5.2931   5.5011   5.7096   6.1720
     6.6706   6.8320

          k = 0.2500-0.4660 0.0000 ( 30312 PWs)   bands (ev):

   -46.4740  -4.1036  -4.0527  -3.8970  -3.8661  -3.8130  -3.7926  -3.5568
    -3.5527  -3.3917  -3.3470  -3.2948  -3.2637  -3.2576  -3.2486  -3.1725
    -3.1209  -2.9330  -2.8792  -2.8581  -2.7962  -2.7479  -2.7384  -2.6317
    -2.6210  -2.6077  -2.5669  -2.5305  -2.5065  -2.4350  -2.3723  -2.2678
    -2.1952  -2.1697  -2.1626  -1.9326  -1.9205  -1.8929  -1.8421  -1.7450
    -1.7005  -1.6687  -1.6543  -1.5651  -1.5329  -1.4636  -1.4208  -1.3351
    -1.3002  -1.2634  -1.2565  -1.2359  -1.1964  -1.1525  -1.1404  -1.0719
    -1.0636  -1.0477  -1.0371  -0.9770  -0.9670  -0.9283  -0.9136  -0.3689
    -0.3184   1.0084   1.1682   2.4524   2.5028   2.5789   2.8119   3.4310
     3.4865   3.6328   4.3842   4.7715   5.1666   5.3293   5.6120   6.4019
     6.6785   6.8914

          k = 0.2500-0.3495 0.0000 ( 30286 PWs)   bands (ev):

   -46.4740  -4.1234  -4.0793  -3.9791  -3.8422  -3.8006  -3.7789  -3.5933
    -3.5378  -3.4121  -3.3863  -3.3433  -3.2834  -3.2348  -3.1512  -3.1210
    -3.0820  -2.9716  -2.9190  -2.8552  -2.8055  -2.7405  -2.7324  -2.6489
    -2.6233  -2.5818  -2.5598  -2.5306  -2.4638  -2.4432  -2.3823  -2.2661
    -2.1961  -2.1814  -2.1566  -2.0054  -1.9499  -1.8501  -1.8013  -1.7683
    -1.7022  -1.6669  -1.6318  -1.5753  -1.5477  -1.5116  -1.4320  -1.3940
    -1.3263  -1.3015  -1.2741  -1.2425  -1.2252  -1.2115  -1.1824  -1.1646
    -1.1143  -1.0226  -1.0090  -0.9835  -0.9091  -0.8728  -0.8491  -0.5365
     0.2243   0.6511   1.7685   1.9792   2.1200   2.7821   3.2912   3.3987
     3.5058   4.0551   4.3659   4.8613   5.2931   5.5011   5.7096   6.1720
     6.6706   6.8321

          k = 0.2500-0.2330 0.0000 ( 30302 PWs)   bands (ev):

   -46.4740  -4.4262  -4.0166  -3.9209  -3.8855  -3.7190  -3.7178  -3.6268
    -3.6051  -3.4816  -3.4038  -3.3101  -3.2204  -3.1974  -3.1269  -3.0622
    -3.0325  -2.9395  -2.9313  -2.8818  -2.8100  -2.7673  -2.7242  -2.7026
    -2.6395  -2.5780  -2.5667  -2.4924  -2.4704  -2.4214  -2.3822  -2.2509
    -2.2284  -2.1766  -2.1084  -2.1000  -1.9747  -1.9397  -1.8759  -1.8036
    -1.7228  -1.7125  -1.6634  -1.6069  -1.5631  -1.5251  -1.5023  -1.4668
    -1.3670  -1.3529  -1.3279  -1.3081  -1.2805  -1.2769  -1.2104  -1.1668
    -1.0839  -1.0591  -1.0321  -0.9982  -0.9733  -0.8619  -0.8481  -0.1101
     0.4339   1.0976   1.5976   1.7563   2.1929   3.0610   3.3026   3.7035
     4.1144   4.2687   4.6800   5.2756   5.4853   5.6465   5.9117   6.2325
     6.4944   6.8071

          k = 0.2500-0.1165 0.0000 ( 30338 PWs)   bands (ev):

   -46.4740  -4.6665  -4.0114  -3.9374  -3.8334  -3.7233  -3.7015  -3.5610
    -3.5089  -3.4937  -3.3540  -3.2714  -3.2248  -3.1648  -3.1372  -3.0409
    -2.9794  -2.9554  -2.9345  -2.8801  -2.8146  -2.7674  -2.7348  -2.6642
    -2.6572  -2.6248  -2.5680  -2.5289  -2.4767  -2.4311  -2.3613  -2.3319
    -2.2516  -2.2140  -2.1647  -2.1446  -2.0235  -2.0080  -1.9248  -1.8817
    -1.8404  -1.7624  -1.7467  -1.6993  -1.5853  -1.5434  -1.4791  -1.4119
    -1.3899  -1.3781  -1.3407  -1.3294  -1.2941  -1.2785  -1.1848  -1.1703
    -1.0808  -1.0495  -1.0190  -0.9949  -0.9505  -0.8918  -0.8374  -0.2207
     0.5735   1.3896   1.6989   1.8853   2.8411   2.9941   3.5243   4.1420
     4.4548   4.5746   4.9302   5.2771   5.6976   5.9613   6.0497   6.1377
     6.4219   6.8912

          k = 0.3750-0.0000 0.0000 ( 30267 PWs)   bands (ev):

   -46.4740  -4.2731  -4.0299  -3.7888  -3.7188  -3.6436  -3.5652  -3.5116
    -3.4986  -3.4684  -3.4636  -3.2548  -3.1750  -3.0957  -3.0795  -2.9946
    -2.9807  -2.9782  -2.9185  -2.8932  -2.8464  -2.7703  -2.7131  -2.6708
    -2.6054  -2.5897  -2.5686  -2.5409  -2.5207  -2.5173  -2.3945  -2.3830
    -2.3009  -2.2577  -2.2140  -2.1293  -2.1213  -2.0492  -1.9827  -1.9607
    -1.8183  -1.7528  -1.7245  -1.6726  -1.5949  -1.5536  -1.5460  -1.4859
    -1.4337  -1.3927  -1.2745  -1.2591  -1.2246  -1.2155  -1.1678  -1.1241
    -1.0731  -1.0169  -1.0124  -0.9340  -0.9209  -0.8893  -0.8188  -0.7455
     0.2141   0.4681   1.8924   2.0890   3.0679   3.2940   3.5915   3.7189
     4.4208   4.8024   4.9470   5.1466   5.7315   6.0962   6.4187   6.4991
     6.6048   6.8213

          k = 0.3750 0.1165 0.0000 ( 30287 PWs)   bands (ev):

   -46.4740  -4.2013  -4.0004  -3.8045  -3.7316  -3.6856  -3.6481  -3.5564
    -3.5208  -3.4414  -3.3756  -3.3349  -3.3018  -3.1297  -3.0888  -3.0639
    -2.9556  -2.9444  -2.9333  -2.9029  -2.8234  -2.8031  -2.7069  -2.6768
    -2.6371  -2.5918  -2.5630  -2.5359  -2.4725  -2.4213  -2.3805  -2.2972
    -2.2598  -2.2353  -2.1592  -2.0887  -2.0577  -2.0358  -1.9114  -1.8686
    -1.8250  -1.7111  -1.7029  -1.6186  -1.5942  -1.5804  -1.5580  -1.4976
    -1.4458  -1.4022  -1.3137  -1.2760  -1.2342  -1.2004  -1.1881  -1.1319
    -1.0862  -1.0345  -1.0046  -0.9390  -0.9163  -0.8553  -0.8290  -0.5121
     0.2510   0.5696   1.9197   2.1397   2.1653   3.3191   3.5402   3.6856
     3.7196   4.5676   4.9142   5.0786   5.4627   5.8074   6.0736   6.4654
     6.6781   6.8760

          k = 0.3750 0.2330 0.0000 ( 30255 PWs)   bands (ev):

   -46.4739  -4.0320  -3.9572  -3.9153  -3.8495  -3.6731  -3.6206  -3.6050
    -3.5214  -3.4970  -3.4393  -3.3920  -3.3277  -3.1716  -3.1348  -3.0943
    -3.0078  -2.9926  -2.9461  -2.8942  -2.8881  -2.8472  -2.7602  -2.6769
    -2.6261  -2.5758  -2.5343  -2.4754  -2.3712  -2.3323  -2.2954  -2.2339
    -2.1830  -2.1625  -2.1172  -2.0584  -1.9484  -1.8991  -1.8759  -1.7452
    -1.7202  -1.6721  -1.6370  -1.6229  -1.5651  -1.5374  -1.5103  -1.4682
    -1.4078  -1.3714  -1.3320  -1.2611  -1.2304  -1.1996  -1.1549  -1.1357
    -1.0665  -1.0307  -0.9745  -0.9509  -0.9229  -0.8560  -0.8133  -0.0588
     0.3981   0.8225   0.9603   2.0911   2.1813   2.4454   2.8928   3.4952
     3.6926   3.8009   4.0676   4.7223   5.2575   5.4385   5.7527   6.2572
     6.6677   6.8933

          k = 0.3750 0.3495 0.0000 ( 30296 PWs)   bands (ev):

   -46.4740  -4.0637  -4.0101  -3.8345  -3.7943  -3.7923  -3.6965  -3.5950
    -3.4997  -3.4482  -3.4192  -3.3710  -3.3274  -3.1974  -3.1628  -3.1324
    -3.0697  -3.0197  -2.9805  -2.9223  -2.9015  -2.8465  -2.8323  -2.6636
    -2.6428  -2.5181  -2.4570  -2.4142  -2.3830  -2.3519  -2.2487  -2.2248
    -2.1585  -2.1095  -2.0965  -1.9544  -1.9270  -1.8595  -1.7987  -1.7581
    -1.6930  -1.6422  -1.6227  -1.5721  -1.5167  -1.4908  -1.4445  -1.3917
    -1.3366  -1.3137  -1.2680  -1.1842  -1.1663  -1.1357  -1.0903  -1.0577
    -1.0332  -1.0099  -0.9943  -0.9614  -0.8676  -0.8286  -0.6181  -0.0774
     0.4905   0.7068   1.1456   1.3507   1.9658   2.3601   2.6475   2.7306
     3.0331   3.5756   3.6879   4.4843   4.8961   5.0532   5.6873   6.2863
     6.5570   6.8991

          k = 0.3750-0.4660 0.0000 ( 30298 PWs)   bands (ev):

   -46.4740  -4.1006  -4.0464  -3.8529  -3.8081  -3.7228  -3.6747  -3.5819
    -3.5486  -3.4807  -3.4317  -3.3148  -3.2779  -3.1697  -3.1605  -3.1469
    -3.1107  -3.0796  -2.9934  -2.9121  -2.9003  -2.8250  -2.7766  -2.7031
    -2.6528  -2.5416  -2.4929  -2.3681  -2.3326  -2.2826  -2.2375  -2.2318
    -2.1853  -2.0878  -2.0726  -1.9874  -1.9692  -1.8317  -1.7847  -1.7669
    -1.7305  -1.6167  -1.6030  -1.5404  -1.4909  -1.4790  -1.4250  -1.3945
    -1.3324  -1.2797  -1.2218  -1.1692  -1.1303  -1.0386  -1.0315  -1.0270
    -1.0132  -1.0006  -0.9941  -0.8542  -0.8514  -0.7369  -0.7161   0.0362
     0.0768   1.1389   1.1667   1.4763   1.6079   2.0026   2.1627   2.8710
     3.0484   3.2826   3.4778   4.4279   4.8220   4.8806   5.6309   6.2750
     6.6220   7.1280

          k = 0.3750-0.3495 0.0000 ( 30296 PWs)   bands (ev):

   -46.4740  -4.0637  -4.0101  -3.8345  -3.7943  -3.7923  -3.6965  -3.5950
    -3.4997  -3.4482  -3.4192  -3.3710  -3.3274  -3.1974  -3.1628  -3.1324
    -3.0697  -3.0197  -2.9805  -2.9223  -2.9015  -2.8465  -2.8323  -2.6636
    -2.6428  -2.5181  -2.4570  -2.4142  -2.3830  -2.3519  -2.2487  -2.2248
    -2.1585  -2.1095  -2.0965  -1.9544  -1.9270  -1.8595  -1.7987  -1.7581
    -1.6930  -1.6422  -1.6227  -1.5721  -1.5167  -1.4908  -1.4445  -1.3917
    -1.3366  -1.3137  -1.2680  -1.1842  -1.1663  -1.1357  -1.0903  -1.0577
    -1.0332  -1.0099  -0.9943  -0.9614  -0.8676  -0.8286  -0.6181  -0.0774
     0.4905   0.7068   1.1456   1.3507   1.9658   2.3601   2.6475   2.7306
     3.0331   3.5756   3.6879   4.4843   4.8961   5.0532   5.6873   6.2863
     6.5570   6.8991

          k = 0.3750-0.2330 0.0000 ( 30255 PWs)   bands (ev):

   -46.4739  -4.0320  -3.9572  -3.9153  -3.8495  -3.6731  -3.6206  -3.6050
    -3.5214  -3.4970  -3.4393  -3.3920  -3.3277  -3.1716  -3.1348  -3.0943
    -3.0078  -2.9926  -2.9461  -2.8942  -2.8881  -2.8472  -2.7602  -2.6769
    -2.6261  -2.5758  -2.5343  -2.4754  -2.3712  -2.3323  -2.2954  -2.2339
    -2.1830  -2.1625  -2.1172  -2.0584  -1.9484  -1.8991  -1.8759  -1.7452
    -1.7202  -1.6721  -1.6370  -1.6229  -1.5651  -1.5374  -1.5103  -1.4682
    -1.4078  -1.3714  -1.3320  -1.2611  -1.2304  -1.1996  -1.1549  -1.1357
    -1.0665  -1.0307  -0.9745  -0.9509  -0.9229  -0.8560  -0.8133  -0.0588
     0.3981   0.8225   0.9603   2.0911   2.1813   2.4454   2.8928   3.4952
     3.6926   3.8009   4.0676   4.7223   5.2575   5.4385   5.7527   6.2572
     6.6677   6.8930

          k = 0.3750-0.1165 0.0000 ( 30287 PWs)   bands (ev):

   -46.4740  -4.2013  -4.0004  -3.8045  -3.7316  -3.6856  -3.6481  -3.5564
    -3.5208  -3.4414  -3.3756  -3.3349  -3.3018  -3.1297  -3.0888  -3.0639
    -2.9556  -2.9444  -2.9333  -2.9029  -2.8234  -2.8031  -2.7069  -2.6768
    -2.6371  -2.5918  -2.5630  -2.5359  -2.4725  -2.4213  -2.3805  -2.2972
    -2.2598  -2.2353  -2.1592  -2.0887  -2.0577  -2.0358  -1.9114  -1.8686
[...]
    -3.4651  -3.3991  -3.3329  -3.2982  -3.2935  -3.2464  -3.2114  -3.0647
    -3.0346  -2.8907  -2.8475  -2.7819  -2.7603  -2.7029  -2.6280  -2.5653
    -2.5082  -2.4728  -2.4144  -2.3119  -2.2813  -2.2331  -2.1660  -2.1002
    -2.0335  -1.9834  -1.9606  -1.9297  -1.8716  -1.8142  -1.7861  -1.7444
    -1.6869  -1.6458  -1.6038  -1.5170  -1.4829  -1.4670  -1.4153  -1.3918
    -1.3808  -1.3364  -1.2913  -1.2768  -1.1899  -1.1203  -0.9718  -0.4458
     0.1426   0.3423   0.7818   0.9706   1.6090   2.0692   2.3392   2.4975
     2.6781   3.5704   3.6919   4.7112   4.7608   5.3393   6.3698   6.9713
     7.0747   7.2180

          k = 0.3750-0.2330 0.0000 ( 30255 PWs)   bands (ev):

   -45.5447  -4.3833  -4.2870  -4.2583  -4.2135  -4.0128  -3.9807  -3.9465
    -3.8856  -3.8580  -3.7889  -3.7420  -3.7134  -3.6120  -3.5201  -3.4723
    -3.3669  -3.3513  -3.3237  -3.2949  -3.2547  -3.1980  -3.1559  -3.0801
    -3.0024  -2.9696  -2.9092  -2.8407  -2.7355  -2.6957  -2.6532  -2.6156
    -2.5350  -2.4942  -2.4506  -2.4022  -2.2911  -2.2687  -2.2230  -2.1250
    -2.0795  -2.0508  -1.9919  -1.9540  -1.9179  -1.8666  -1.8454  -1.8195
    -1.7357  -1.6983  -1.6726  -1.6143  -1.5711  -1.5319  -1.4998  -1.4568
    -1.4072  -1.3343  -1.3064  -1.2775  -1.2443  -1.1676  -1.1038  -0.4104
     0.0743   0.4349   0.5806   1.7524   2.0275   2.0816   2.5310   3.3656
     3.6068   3.7962   3.8638   5.0839   5.2786   5.4675   6.2173   6.6067
     7.0501   7.2844

          k = 0.3750-0.1165 0.0000 ( 30287 PWs)   bands (ev):

   -45.5448  -4.5577  -4.3460  -4.1401  -4.0845  -4.0435  -4.0041  -3.9065
    -3.8748  -3.7843  -3.7510  -3.6935  -3.6762  -3.5625  -3.4643  -3.4257
    -3.3624  -3.3212  -3.2866  -3.2691  -3.1964  -3.1656  -3.0768  -3.0565
    -3.0241  -2.9634  -2.9155  -2.9002  -2.8167  -2.7918  -2.7380  -2.6561
    -2.6051  -2.5809  -2.5431  -2.4660  -2.4248  -2.3953  -2.3003  -2.2342
    -2.1672  -2.0582  -2.0368  -1.9638  -1.9461  -1.9098  -1.8944  -1.8590
    -1.7833  -1.7461  -1.6543  -1.6417  -1.5589  -1.5505  -1.5032  -1.4822
    -1.4111  -1.3691  -1.3264  -1.2716  -1.2201  -1.1703  -1.1085  -0.8689
    -0.0554   0.1865   1.6529   1.7855   1.9668   3.0157   3.3254   3.6972
     3.7263   4.5001   4.7922   5.2347   5.5768   6.0415   6.3187   6.5920
     6.6337   6.9156

          k =-0.5000 0.0000 0.0000 ( 30196 PWs)   bands (ev):

   -45.5447  -4.2769  -4.2400  -4.2357  -4.1776  -3.9344  -3.9139  -3.8991
    -3.8518  -3.7915  -3.7441  -3.6729  -3.6379  -3.4299  -3.4185  -3.3887
    -3.3160  -3.2968  -3.2853  -3.2031  -3.1733  -3.1092  -3.0915  -3.0661
    -3.0285  -2.9884  -2.9276  -2.8728  -2.8606  -2.8291  -2.7815  -2.7328
    -2.6920  -2.6336  -2.5985  -2.5002  -2.4782  -2.3608  -2.3426  -2.2983
    -2.2848  -2.2218  -2.1842  -2.1016  -2.0878  -1.9478  -1.9332  -1.7328
    -1.7056  -1.6737  -1.6418  -1.5910  -1.5634  -1.5589  -1.5087  -1.3603
    -1.3503  -1.3181  -1.2973  -1.2505  -1.2440  -1.1899  -1.1841  -0.8800
    -0.8497   0.6622   0.6930   2.5961   2.6375   2.9105   3.0959   4.1464
     4.3501   4.5159   4.7234   5.8273   6.1049   6.3246   6.3623   6.3778
     6.5709   6.7655

          k =-0.5000 0.1165 0.0000 ( 30222 PWs)   bands (ev):

   -45.5447  -4.2292  -4.2173  -4.1931  -4.1212  -4.0148  -3.9894  -3.9703
    -3.9280  -3.7907  -3.7526  -3.6585  -3.6246  -3.5386  -3.4866  -3.4175
    -3.3499  -3.3404  -3.2914  -3.2866  -3.2198  -3.1491  -3.1341  -3.0401
    -2.9996  -2.8884  -2.8608  -2.8538  -2.7806  -2.7679  -2.7346  -2.6952
    -2.6873  -2.5132  -2.4743  -2.4629  -2.4447  -2.3393  -2.3386  -2.2789
    -2.2658  -2.2016  -2.1965  -2.0213  -1.9763  -1.9541  -1.9319  -1.7876
    -1.7660  -1.6769  -1.6147  -1.5948  -1.5636  -1.4723  -1.4500  -1.3654
    -1.3595  -1.3204  -1.3094  -1.2547  -1.2473  -1.1724  -1.1702  -0.8031
    -0.7725   0.7033   0.7472   2.2845   2.4646   2.6716   2.7434   3.6161
     3.9095   4.2160   4.5278   5.5430   5.7498   5.7832   6.2364   6.8336
     7.0174   7.1187

          k =-0.5000 0.2330 0.0000 ( 30230 PWs)   bands (ev):

   -45.5447  -4.1764  -4.1746  -4.1463  -4.1381  -4.1138  -4.1135  -4.0138
    -3.9762  -3.7676  -3.7507  -3.6666  -3.6300  -3.5763  -3.5105  -3.4890
    -3.4779  -3.4491  -3.3968  -3.3786  -3.2935  -3.1729  -3.1370  -3.0613
    -3.0477  -2.8935  -2.8473  -2.7820  -2.6959  -2.6498  -2.6096  -2.5517
    -2.5395  -2.4172  -2.3939  -2.3696  -2.3536  -2.2857  -2.2809  -2.2016
    -2.1921  -2.1225  -2.0770  -1.9873  -1.9371  -1.8648  -1.8188  -1.7589
    -1.7539  -1.6859  -1.6317  -1.6149  -1.5784  -1.4178  -1.3935  -1.3520
    -1.3446  -1.2585  -1.2569  -1.1893  -1.1887  -1.1447  -1.1425  -0.5782
    -0.5436   0.8461   0.9274   1.3117   1.4330   2.4754   2.6877   2.8010
     2.8248   3.8826   4.0452   4.8244   5.0002   5.5069   6.3286   7.0087
     7.2653   7.2680

          k =-0.5000 0.3495 0.0000 ( 30248 PWs)   bands (ev):

   -45.5447  -4.2823  -4.2701  -4.2397  -4.2395  -4.0578  -4.0449  -3.9491
    -3.9461  -3.7386  -3.7152  -3.6607  -3.6318  -3.5966  -3.5799  -3.5227
    -3.4707  -3.4691  -3.4301  -3.4041  -3.3334  -3.2385  -3.1852  -3.1072
    -3.0742  -2.9011  -2.8782  -2.7480  -2.6976  -2.5434  -2.4814  -2.4432
    -2.4291  -2.3496  -2.3417  -2.3187  -2.3099  -2.2794  -2.2213  -2.1910
    -2.1549  -2.1396  -2.1148  -1.9760  -1.9611  -1.7626  -1.6795  -1.6708
    -1.6212  -1.5797  -1.5577  -1.5184  -1.5024  -1.4437  -1.4080  -1.3537
    -1.3501  -1.2575  -1.2476  -1.1779  -1.1743  -0.8132  -0.7986  -0.1794
    -0.1376   0.3991   0.4828   1.1005   1.1935   1.4976   1.7062   2.5976
     2.7918   3.2561   3.3836   4.6285   4.6893   5.1922   6.4034   7.1920
     7.2735   7.4607

          k =-0.5000-0.4660 0.0000 ( 30304 PWs)   bands (ev):

   -45.5448  -4.3217  -4.3116  -4.2893  -4.2825  -4.0013  -3.9739  -3.9555
    -3.9447  -3.7785  -3.7122  -3.6792  -3.6631  -3.6177  -3.6155  -3.5175
    -3.4763  -3.3910  -3.3807  -3.3804  -3.2762  -3.2613  -3.2147  -3.1718
    -3.1340  -2.8482  -2.8120  -2.7619  -2.7420  -2.4860  -2.4491  -2.4401
    -2.4241  -2.3597  -2.3231  -2.2966  -2.2771  -2.2661  -2.2334  -2.1787
    -2.1549  -2.1533  -2.1368  -1.9997  -1.9925  -1.7611  -1.6564  -1.5908
    -1.5641  -1.5625  -1.5402  -1.4563  -1.4394  -1.3998  -1.3699  -1.3366
    -1.3168  -1.2301  -1.2266  -1.2153  -1.2120  -0.3365  -0.3125  -0.2931
    -0.2527   0.4253   0.5175   0.5353   0.5984   1.6175   2.0471   2.0694
     2.0830   3.2448   3.3898   4.4518   4.5075   5.1709   6.5553   7.0824
     7.1219   7.7793

     the Fermi energy is     1.6935 ev

!    total energy              =   -1026.28373857 Ry
     estimated scf accuracy    <          5.4E-09 Ry
     smearing contrib. (-TS)   =      -0.00072272 Ry
     internal energy E=F+TS    =   -1026.28301584 Ry

     The total energy is F=E-TS. E is the sum of the following terms:
     one-electron contribution =  -10702.57152175 Ry
     hartree contribution      =    5444.13332565 Ry
     xc contribution           =    -271.47754565 Ry
     ewald contribution        =    4503.95256930 Ry
     DFT-D3 Dispersion         =      -0.31984339 Ry

     convergence has been achieved in   6 iterations

     negative rho (up, down):  3.947E-05 0.000E+00

     Forces acting on atoms (cartesian axes, Ry/au):

     atom    1 type  2   force =     0.00000005    0.00035802    0.00007173
     atom    2 type  2   force =    -0.00000064   -0.00018336   -0.00009843
     atom    3 type  2   force =     0.00000091   -0.00061985   -0.00084475
     atom    4 type  2   force =    -0.00000055    0.00061543    0.00020597
     atom    5 type  2   force =     0.00000011    0.00018683   -0.00011415
     atom    6 type  2   force =    -0.00000033   -0.00027419    0.00044662
     atom    7 type  2   force =    -0.00000051   -0.00042282    0.00039703
     atom    8 type  2   force =     0.00000048    0.00071604    0.00003651
     atom    9 type  2   force =    -0.00000062   -0.00059811    0.00025092
     atom   10 type  2   force =     0.00000107    0.00035573    0.00014315
     atom   11 type  2   force =    -0.00000033   -0.00084056    0.00062210
     atom   12 type  2   force =     0.00000034    0.00004126   -0.00078715
     atom   13 type  1   force =     0.00000003    0.00066557   -0.00032954
     The non-local contrib.  to forces
     atom    1 type  2   force =     0.00000006    0.01497762    0.04651953
     atom    2 type  2   force =    -0.00000046   -0.02805132    0.05094719
     atom    3 type  2   force =     0.00000099    0.01491655    0.00346994
     atom    4 type  2   force =    -0.00000041   -0.01670507    0.00523934
     atom    5 type  2   force =     0.00000019    0.00536800    0.01185884
     atom    6 type  2   force =    -0.00000041   -0.00136407    0.01069153
     atom    7 type  2   force =    -0.00000063   -0.00342855   -0.01163969
     atom    8 type  2   force =     0.00000051    0.00097192   -0.01674633
     atom    9 type  2   force =    -0.00000050    0.01660380    0.00411869
     atom   10 type  2   force =     0.00000112   -0.01727267    0.00601583
     atom   11 type  2   force =    -0.00000038    0.01169388   -0.13029960
     atom   12 type  2   force =     0.00000021   -0.03192877   -0.12933932
     atom   13 type  1   force =     0.00000002    0.01992150    0.06646250
     The ionic contribution  to forces
     atom    1 type  2   force =     0.00002483   10.57144790  111.80765073
     atom    2 type  2   force =    -0.00004327    7.16058523  111.59768804
     atom    3 type  2   force =     0.00006286    5.73506945   73.13443784
     atom    4 type  2   force =    -0.00003858    6.12874100   68.24758423
     atom    5 type  2   force =     0.00000872    1.65301367   20.37255250
     atom    6 type  2   force =    -0.00001841    1.58272508   20.01253596
     atom    7 type  2   force =    -0.00004115   -2.17126870  -25.38734830
     atom    8 type  2   force =     0.00003426   -2.08809041  -27.04591985
     atom    9 type  2   force =    -0.00005522   -6.87758182  -77.26936294
     atom   10 type  2   force =     0.00007624   -5.93716230  -77.40659516
     atom   11 type  2   force =    -0.00003844   -7.80173115 -116.61609420
     atom   12 type  2   force =     0.00002923  -11.45013174 -116.72946343
     atom   13 type  1   force =    -0.00000108    3.49438379   35.28233460
     The local contribution  to forces
     atom    1 type  2   force =    -0.00002461  -10.58642936 -111.84550876
     atom    2 type  2   force =     0.00004296   -7.13203495 -111.64027635
     atom    3 type  2   force =    -0.00006276   -5.75041275  -73.13377963
     atom    4 type  2   force =     0.00003840   -6.11130056  -68.24865562
     atom    5 type  2   force =    -0.00000885   -1.65812693  -20.38176589
     atom    6 type  2   force =     0.00001859   -1.58104435  -20.02007380
     atom    7 type  2   force =     0.00004117    2.17324278   25.39604341
     atom    8 type  2   force =    -0.00003414    2.08839053   27.05921173
     atom    9 type  2   force =     0.00005507    6.85978966   77.25937798
     atom   10 type  2   force =    -0.00007605    5.95433133   77.39451716
     atom   11 type  2   force =     0.00003850    7.78773691  116.73552308
     atom   12 type  2   force =    -0.00002914   11.48146952  116.84612277
     atom   13 type  1   force =     0.00000110   -3.51349978  -35.34725013
     The core correction contribution to forces
     atom    1 type  2   force =    -0.00000001   -0.00000683   -0.00413379
     atom    2 type  2   force =     0.00000008    0.00070770   -0.00410824
     atom    3 type  2   force =    -0.00000013   -0.00023211   -0.00081770
     atom    4 type  2   force =     0.00000007    0.00026347    0.00112167
     atom    5 type  2   force =    -0.00000002    0.00010699   -0.00044449
     atom    6 type  2   force =     0.00000004   -0.00025817   -0.00042568
     atom    7 type  2   force =     0.00000007    0.00050800    0.00029128
     atom    8 type  2   force =    -0.00000006   -0.00049268    0.00044103
     atom    9 type  2   force =     0.00000010    0.00010216    0.00151732
     atom   10 type  2   force =    -0.00000015    0.00019382    0.00156019
     atom   11 type  2   force =     0.00000006   -0.00048509    0.00707355
     atom   12 type  2   force =    -0.00000004    0.00176132    0.00715498
     atom   13 type  1   force =     0.00000000    0.00000000    0.00000000
     The Hubbard contrib.    to forces
     atom    1 type  2   force =     0.00000000    0.00000000    0.00000000
     atom    2 type  2   force =     0.00000000    0.00000000    0.00000000
     atom    3 type  2   force =     0.00000000    0.00000000    0.00000000
     atom    4 type  2   force =     0.00000000    0.00000000    0.00000000
     atom    5 type  2   force =     0.00000000    0.00000000    0.00000000
     atom    6 type  2   force =     0.00000000    0.00000000    0.00000000
     atom    7 type  2   force =     0.00000000    0.00000000    0.00000000
     atom    8 type  2   force =     0.00000000    0.00000000    0.00000000
     atom    9 type  2   force =     0.00000000    0.00000000    0.00000000
     atom   10 type  2   force =     0.00000000    0.00000000    0.00000000
     atom   11 type  2   force =     0.00000000    0.00000000    0.00000000
     atom   12 type  2   force =     0.00000000    0.00000000    0.00000000
     atom   13 type  1   force =     0.00000000    0.00000000    0.00000000
     The SCF correction term to forces
     atom    1 type  2   force =    -0.00000019   -0.00002585   -0.00007134
     atom    2 type  2   force =     0.00000005    0.00004102   -0.00009326
     atom    3 type  2   force =     0.00000002    0.00002002   -0.00003028
     atom    4 type  2   force =    -0.00000001   -0.00004224   -0.00000383
     atom    5 type  2   force =     0.00000009   -0.00002368    0.00005298
     atom    6 type  2   force =    -0.00000015    0.00002268    0.00004443
     atom    7 type  2   force =     0.00000001    0.00001083    0.00004615
     atom    8 type  2   force =    -0.00000005    0.00000285    0.00003924
     atom    9 type  2   force =    -0.00000006    0.00003795    0.00001382
     atom   10 type  2   force =     0.00000001   -0.00003532    0.00001458
     atom   11 type  2   force =    -0.00000005   -0.00002865   -0.00000924
     atom   12 type  2   force =     0.00000011    0.00002840   -0.00001894
     atom   13 type  1   force =     0.00000003    0.00000747   -0.00001248

     DFT-D3 dispersion contribution to forces:
     atom    1 type  2   force =     0.00000000    0.00039445   -0.00438569
     atom    2 type  2   force =     0.00000003   -0.00143113   -0.00425686
     atom    3 type  2   force =    -0.00000005    0.00001890   -0.00412597
     atom    4 type  2   force =     0.00000002   -0.00034125   -0.00508087
     atom    5 type  2   force =    -0.00000000   -0.00015130   -0.00236913
     atom    6 type  2   force =     0.00000003   -0.00035544   -0.00232688
     atom    7 type  2   force =     0.00000004    0.00051274    0.00300313
     atom    8 type  2   force =    -0.00000002   -0.00006627    0.00300965
     atom    9 type  2   force =     0.00000002    0.00045007    0.00458501
     atom   10 type  2   force =    -0.00000007    0.00030079    0.00462951
     atom   11 type  2   force =     0.00000001    0.00197347    0.00442747
     atom   12 type  2   force =    -0.00000000   -0.00115754    0.00475573
     atom   13 type  1   force =    -0.00000001   -0.00014750   -0.00186507

     Total force =     0.002388     Total SCF correction =     0.000185


     Computing stress (Cartesian axis) and pressure


     negative rho (up, down):  3.947E-05 0.000E+00
          total   stress  (Ry/bohr**3)                   (kbar)     P=      -11.21
  -0.00007970   0.00000000  -0.00000000          -11.72        0.00       -0.00
   0.00000000  -0.00010212   0.00000768            0.00      -15.02        1.13
  -0.00000000   0.00000768  -0.00004679           -0.00        1.13       -6.88

     Energy error            =      1.2E-05 Ry
     Gradient error          =      8.4E-04 Ry/Bohr

     bfgs converged in  24 scf cycles and  23 bfgs steps
     (criteria: energy <  1.0E-04 Ry, force <  1.0E-03 Ry/Bohr)

     End of BFGS Geometry Optimization

     Final energy             =   -1026.2837385662 Ry

     File ./Ag_mp-10597_110_hollow_1/Ag_mp-10597_110_hollow_1.bfgs deleted, as requested
Begin final coordinates

ATOMIC_POSITIONS (angstrom)
Ag            1.1754171993        1.1445892911       17.3306854755
Ag            3.5262500254        4.5980121618       17.0235308837
Ag            1.1754141455        3.5546025319       15.8016544205
Ag            3.5262486381        1.9105676461       15.8029440419
Ag            1.1754156665        0.9111020453       14.4400530823
Ag            3.5262479314        4.2646815031       14.1522437140
Ag            1.1754162989        3.3258211911       12.8447631063
Ag            3.5262445646        1.6060565113       12.9407805731
Ag            1.1754145372        0.6569218329       11.5206192067
Ag            3.5262405136        4.0237178700       11.2419046092
Ag            1.1754130702        3.0691132801        9.9736297342
Ag            3.5262433312        1.3925979903       10.0986797540
Li            3.5262461070        2.2243360649       18.4504281197
End final coordinates



     Writing all to output data dir ./Ag_mp-10597_110_hollow_1/Ag_mp-10597_110_hollow_1.save/

     init_run     :      3.38s CPU      3.93s WALL (       1 calls)
     electrons    :    306.40s CPU    339.58s WALL (      24 calls)
     update_pot   :     16.70s CPU     17.41s WALL (      23 calls)
     forces       :     14.68s CPU     15.78s WALL (      24 calls)
     force_dftd3  :      0.22s CPU      0.40s WALL (      24 calls)
     stress       :     71.95s CPU     73.20s WALL (      24 calls)
     stres_dftd3  :      0.24s CPU      0.37s WALL (      24 calls)

     Called by init_run:
     wfcinit      :      0.62s CPU      0.94s WALL (       1 calls)
     potinit      :      0.76s CPU      0.78s WALL (       1 calls)
     hinit0       :      1.80s CPU      1.95s WALL (       1 calls)

     Called by electrons:
     c_bands      :    269.30s CPU    293.94s WALL (     191 calls)
     sum_band     :     30.65s CPU     34.93s WALL (     191 calls)
     v_of_rho     :      2.67s CPU      3.46s WALL (     200 calls)
     newd         :      2.66s CPU      2.81s WALL (     200 calls)
     mix_rho      :      0.32s CPU      0.34s WALL (     191 calls)
     energy_dftd3 :      0.05s CPU      0.05s WALL (      24 calls)

     Called by c_bands:
     init_us_2    :      1.34s CPU      1.43s WALL (    3879 calls)
     init_us_2:cp :      1.33s CPU      1.43s WALL (    3879 calls)
     cegterg      :    253.31s CPU    267.28s WALL (    1719 calls)

     Called by *egterg:
     cdiaghg      :     70.54s CPU     71.05s WALL (    7998 calls)
     h_psi        :    133.38s CPU    143.25s WALL (    8349 calls)
     s_psi        :     10.30s CPU     10.42s WALL (    8349 calls)
     g_psi        :      0.47s CPU      0.48s WALL (    6621 calls)

     Called by h_psi:
     h_psi:calbec :     16.64s CPU     19.07s WALL (    8349 calls)
     vloc_psi     :    105.18s CPU    112.46s WALL (    8349 calls)
     add_vuspsi   :     10.88s CPU     11.03s WALL (    8349 calls)

     General routines
     calbec       :     25.23s CPU     28.66s WALL (   11148 calls)
     fft          :      5.26s CPU      6.74s WALL (    3190 calls)
     ffts         :      0.62s CPU      1.10s WALL (     391 calls)
     fftw         :    111.56s CPU    119.06s WALL (  925786 calls)
     interpolate  :      0.67s CPU      0.92s WALL (     200 calls)

     Parallel routines

     PWSCF        :   6m54.43s CPU   7m32.70s WALL


   This run was terminated on:  11:26:19  25Jul2025            

=------------------------------------------------------------------------------=
   JOB DONE.
=------------------------------------------------------------------------------=
