
     Program PWSCF v.7.2 starts on 24Jul2025 at  6:51: 6 

     This program is part of the open-source Quantum ESPRESSO suite
     for quantum simulation of materials; please cite
         "P. Giannozzi et al., J. Phys.:Condens. Matter 21 395502 (2009);
         "P. Giannozzi et al., J. Phys.:Condens. Matter 29 465901 (2017);
         "P. Giannozzi et al., J. Chem. Phys. 152 154105 (2020);
          URL http://www.quantum-espresso.org", 
     in publications or presentations arising from this work. More details at
     http://www.quantum-espresso.org/quote

     Parallel version (MPI & OpenMP), running on     128 processor cores
     Number of MPI processes:               128
     Threads/MPI process:                     1

     MPI processes distributed on     2 nodes
     243992 MiB available memory on the printing compute node when the environment starts

     Reading input from Ag_mp-10597_110.in

     Current dimensions of program PWSCF are:
     Max number of different atomic species (ntypx) = 10
     Max number of k-points (npk) =  40000
     Max angular momentum in pseudopotentials (lmaxx) =  4
     Message from routine iosys:
     restart disabled: needed files not found

     K-points division:     npool     =       4
     R & G space division:  proc/nbgrp/npool/nimage =      32
     Subspace diagonalization in iterative solution of the eigenvalue problem:
     a serial algorithm will be used


     Parallelization info
     --------------------
     sticks:   dense  smooth     PW     G-vecs:    dense   smooth      PW
     Min         105      46     13                25945     7565    1138
     Max         106      47     14                25972     7591    1152
     Sum        3375    1477    427               830555   242337   36651

     Using Slab Decomposition



     bravais-lattice index     =            0
     lattice parameter (alat)  =       8.8849  a.u.
     unit-cell volume          =    4399.6779 (a.u.)^3
     number of atoms/cell      =           12
     number of atomic types    =            1
     number of electrons       =       132.00
     number of Kohn-Sham states=           79
     kinetic-energy cutoff     =      55.0000  Ry
     charge density cutoff     =     500.0000  Ry
     scf convergence threshold =      1.0E-06
     mixing beta               =       0.3000
     number of iterations used =            8  plain     mixing
     energy convergence thresh.=      1.0E-04
     force convergence thresh. =      1.0E-03
     Exchange-correlation= PBE
                           (   1   4   3   4   0   0   0)
     nstep                     =          500


     celldm(1)=   8.884853  celldm(2)=   0.000000  celldm(3)=   0.000000
     celldm(4)=   0.000000  celldm(5)=   0.000000  celldm(6)=   0.000000

     crystal axes: (cart. coord. in units of alat)
               a(1) = (   1.000000   0.000000   0.000000 )  
               a(2) = (   0.000000   1.072906  -0.088492 )  
               a(3) = (   0.000000   0.000000   5.846668 )  

     reciprocal axes: (cart. coord. in units 2 pi/alat)
               b(1) = (  1.000000 -0.000000  0.000000 )  
               b(2) = (  0.000000  0.932048  0.000000 )  
               b(3) = ( -0.000000  0.014107  0.171038 )  


     PseudoPot. # 1 for Ag read from file:
     /home/ecastro/trabajo_final/pseudos/Ag.pbe-n-rrkjus_psl.1.0.0.UPF
     MD5 check sum: 81cdf87bacf708300839c66ee23ce017
     Pseudo is Ultrasoft + core correction, Zval = 11.0
     Generated using &quot;atomic&quot; code by A. Dal Corso  v.6.2.2
     Using radial grid of 1237 points,  6 beta functions with: 
                l(1) =   0
                l(2) =   0
                l(3) =   1
                l(4) =   1
                l(5) =   2
                l(6) =   2
     Q(r) pseudized with 0 coefficients 


     atomic species   valence    mass     pseudopotential
        Ag            11.00   107.86820     Ag( 1.00)

     No symmetry found



   Cartesian axes

     site n.     atom                  positions (alat units)
         1           Ag  tau(   1) = (   0.2500000   0.2426811   3.6828885  )
         2           Ag  tau(   2) = (   0.7500000   0.9579519   3.6238939  )
         3           Ag  tau(   3) = (   0.2500000   0.7535888   3.3289212  )
         4           Ag  tau(   4) = (   0.7500000   0.3959534   3.3584185  )
         5           Ag  tau(   5) = (   0.2500000   0.1915904   3.0634458  )
         6           Ag  tau(   6) = (   0.7500000   0.9068611   3.0044513  )
         7           Ag  tau(   7) = (   0.2500000   0.7024981   2.7094786  )
         8           Ag  tau(   8) = (   0.7500000   0.3448627   2.7389759  )
         9           Ag  tau(   9) = (   0.2500000   0.1404996   2.4440032  )
        10           Ag  tau(  10) = (   0.7500000   0.8557704   2.3850086  )
        11           Ag  tau(  11) = (   0.2500000   0.6514073   2.0900360  )
        12           Ag  tau(  12) = (   0.7500000   0.2937719   2.1195332  )

     --------------------------------------------
     DFT-D3 Dispersion Correction (no 3-body):
     --------------------------------------------
       Reference C6 values for interpolation: 

         atom   Coordination number   C6
         Ag         0.000           853.49
         Ag         0.968           537.23

       Values used:

         atom   Coordination number  R0_AB[au]  C6      C8
         Ag         5.061            3.147    537.23  47741.54
         Ag         5.061            3.147    537.23  47741.54
         Ag         7.890            3.147    537.23  47741.54
         Ag         7.890            3.147    537.23  47741.54
         Ag         8.617            3.147    537.23  47741.54
         Ag         8.617            3.147    537.23  47741.54
         Ag         8.617            3.147    537.23  47741.54
         Ag         8.617            3.147    537.23  47741.54
         Ag         7.890            3.147    537.23  47741.54
         Ag         7.890            3.147    537.23  47741.54
         Ag         5.061            3.147    537.23  47741.54
         Ag         5.061            3.147    537.23  47741.54

         Molecular C6 ( Ry / a.u.^6 ) =     77360.54


     number of k points=    34  Methfessel-Paxton smearing, width (Ry)=  0.0300
                       cart. coord. in units 2pi/alat
        k(    1) = (   0.0000000   0.0000000   0.0000000), wk =   0.0312500
        k(    2) = (   0.0000000   0.1165060   0.0000000), wk =   0.0625000
        k(    3) = (   0.0000000   0.2330120   0.0000000), wk =   0.0625000
        k(    4) = (   0.0000000   0.3495180   0.0000000), wk =   0.0625000
        k(    5) = (   0.0000000  -0.4660240   0.0000000), wk =   0.0312500
        k(    6) = (   0.1250000  -0.0000000   0.0000000), wk =   0.0625000
        k(    7) = (   0.1250000   0.1165060   0.0000000), wk =   0.0625000
        k(    8) = (   0.1250000   0.2330120   0.0000000), wk =   0.0625000
        k(    9) = (   0.1250000   0.3495180   0.0000000), wk =   0.0625000
        k(   10) = (   0.1250000  -0.4660240   0.0000000), wk =   0.0625000
        k(   11) = (   0.1250000  -0.3495180   0.0000000), wk =   0.0625000
        k(   12) = (   0.1250000  -0.2330120   0.0000000), wk =   0.0625000
        k(   13) = (   0.1250000  -0.1165060   0.0000000), wk =   0.0625000
        k(   14) = (   0.2500000  -0.0000000   0.0000000), wk =   0.0625000
        k(   15) = (   0.2500000   0.1165060   0.0000000), wk =   0.0625000
        k(   16) = (   0.2500000   0.2330120   0.0000000), wk =   0.0625000
        k(   17) = (   0.2500000   0.3495180   0.0000000), wk =   0.0625000
        k(   18) = (   0.2500000  -0.4660240   0.0000000), wk =   0.0625000
        k(   19) = (   0.2500000  -0.3495180   0.0000000), wk =   0.0625000
        k(   20) = (   0.2500000  -0.2330120   0.0000000), wk =   0.0625000
        k(   21) = (   0.2500000  -0.1165060   0.0000000), wk =   0.0625000
        k(   22) = (   0.3750000  -0.0000000   0.0000000), wk =   0.0625000
        k(   23) = (   0.3750000   0.1165060   0.0000000), wk =   0.0625000
        k(   24) = (   0.3750000   0.2330120   0.0000000), wk =   0.0625000
        k(   25) = (   0.3750000   0.3495180   0.0000000), wk =   0.0625000
        k(   26) = (   0.3750000  -0.4660240   0.0000000), wk =   0.0625000
        k(   27) = (   0.3750000  -0.3495180   0.0000000), wk =   0.0625000
        k(   28) = (   0.3750000  -0.2330120   0.0000000), wk =   0.0625000
        k(   29) = (   0.3750000  -0.1165060   0.0000000), wk =   0.0625000
        k(   30) = (  -0.5000000   0.0000000   0.0000000), wk =   0.0312500
        k(   31) = (  -0.5000000   0.1165060   0.0000000), wk =   0.0625000
        k(   32) = (  -0.5000000   0.2330120   0.0000000), wk =   0.0625000
        k(   33) = (  -0.5000000   0.3495180   0.0000000), wk =   0.0625000
        k(   34) = (  -0.5000000  -0.4660240   0.0000000), wk =   0.0312500

     Dense  grid:   830555 G-vectors     FFT dimensions: (  64,  72, 375)

     Smooth grid:   242337 G-vectors     FFT dimensions: (  45,  45, 250)

     Estimated max dynamical RAM per process >      52.79 MB

     Estimated total dynamical RAM >       6.01 GB
     Cannot read rho : file not found

     Initial potential from superposition of free atoms

     starting charge     131.9952, renormalised to     132.0000

     negative rho (up, down):  1.153E-04 0.000E+00
     Message from routine qexsd_readschema :
     xml data file ./Ag_110/Ag_110.save/data-file-schema.xml not found
     Cannot read wfcs: file not found
     Starting wfcs are  108 randomized atomic wfcs

     total cpu time spent up to now is        8.1 secs

     per-process dynamical memory:   195.2 Mb

     Self-consistent Calculation

     iteration #  1     ecut=    55.00 Ry     beta= 0.30
     Davidson diagonalization with overlap
     c_bands:  1 eigenvalues not converged
     c_bands:  1 eigenvalues not converged
     c_bands:  1 eigenvalues not converged
     c_bands:  1 eigenvalues not converged
     c_bands:  1 eigenvalues not converged
     c_bands:  1 eigenvalues not converged
     c_bands:  2 eigenvalues not converged
     ethr =  1.00E-05,  avg # of iterations = 19.1

     negative rho (up, down):  9.488E-05 0.000E+00

     total cpu time spent up to now is       20.0 secs

     total energy              =   -1011.28317701 Ry
     estimated scf accuracy    <       0.29190570 Ry

     iteration #  2     ecut=    55.00 Ry     beta= 0.30
     Davidson diagonalization with overlap
     ethr =  2.21E-04,  avg # of iterations = 11.4

     negative rho (up, down):  8.142E-05 0.000E+00

     total cpu time spent up to now is       24.4 secs

     total energy              =   -1011.29687834 Ry
     estimated scf accuracy    <       0.51762229 Ry

     iteration #  3     ecut=    55.00 Ry     beta= 0.30
     Davidson diagonalization with overlap
     ethr =  2.21E-04,  avg # of iterations =  2.1

     negative rho (up, down):  5.926E-05 0.000E+00

     total cpu time spent up to now is       26.8 secs

     total energy              =   -1011.35920101 Ry
     estimated scf accuracy    <       0.01965874 Ry

     iteration #  4     ecut=    55.00 Ry     beta= 0.30
     Davidson diagonalization with overlap
     ethr =  1.49E-05,  avg # of iterations = 10.0

     negative rho (up, down):  5.149E-05 0.000E+00

     total cpu time spent up to now is       30.6 secs

     total energy              =   -1011.36160929 Ry
     estimated scf accuracy    <       0.00153027 Ry

     iteration #  5     ecut=    55.00 Ry     beta= 0.30
     Davidson diagonalization with overlap
     ethr =  1.16E-06,  avg # of iterations =  8.1

     negative rho (up, down):  5.203E-05 0.000E+00

     total cpu time spent up to now is       34.0 secs

     total energy              =   -1011.36189848 Ry
     estimated scf accuracy    <       0.00026469 Ry

     iteration #  6     ecut=    55.00 Ry     beta= 0.30
     Davidson diagonalization with overlap
     ethr =  2.01E-07,  avg # of iterations =  2.9

     negative rho (up, down):  4.644E-05 0.000E+00

     total cpu time spent up to now is       36.2 secs

     total energy              =   -1011.36188667 Ry
     estimated scf accuracy    <       0.00075521 Ry

     iteration #  7     ecut=    55.00 Ry     beta= 0.30
     Davidson diagonalization with overlap
     ethr =  2.01E-07,  avg # of iterations =  1.5

     negative rho (up, down):  4.510E-05 0.000E+00

     total cpu time spent up to now is       38.1 secs

     total energy              =   -1011.36193808 Ry
     estimated scf accuracy    <       0.00004408 Ry

     iteration #  8     ecut=    55.00 Ry     beta= 0.30
     Davidson diagonalization with overlap
     ethr =  3.34E-08,  avg # of iterations =  2.5

     negative rho (up, down):  4.335E-05 0.000E+00

     total cpu time spent up to now is       40.2 secs

     total energy              =   -1011.36194399 Ry
     estimated scf accuracy    <       0.00000321 Ry

     iteration #  9     ecut=    55.00 Ry     beta= 0.30
     Davidson diagonalization with overlap
     ethr =  2.43E-09,  avg # of iterations =  5.1

     negative rho (up, down):  4.212E-05 0.000E+00

     total cpu time spent up to now is       43.0 secs

     total energy              =   -1011.36194522 Ry
     estimated scf accuracy    <       0.00000109 Ry

     iteration # 10     ecut=    55.00 Ry     beta= 0.30
     Davidson diagonalization with overlap
     ethr =  8.29E-10,  avg # of iterations =  2.4

     negative rho (up, down):  3.941E-05 0.000E+00

     total cpu time spent up to now is       45.4 secs

     End of self-consistent calculation

          k = 0.0000 0.0000 0.0000 ( 30377 PWs)   bands (ev):

    -6.0246  -4.9191  -4.8276  -4.6838  -4.6525  -4.5436  -4.4357  -4.3561
    -4.3027  -4.2693  -4.1949  -4.0815  -3.9721  -3.9412  -3.7054  -3.6638
    -3.6616  -3.6249  -3.6130  -3.5555  -3.5432  -3.5127  -3.5124  -3.3507
    -3.2885  -3.2579  -3.2438  -3.2060  -3.2033  -3.1896  -3.1618  -3.1181
    -3.0661  -2.9943  -2.9755  -2.9439  -2.9231  -2.8149  -2.8108  -2.8101
    -2.7997  -2.6594  -2.5533  -2.4744  -2.3117  -2.2137  -2.2013  -2.1645
    -2.1589  -2.1588  -2.1562  -2.1261  -1.9754  -1.9264  -1.8391  -1.8366
    -1.8050  -1.7928  -1.7786  -1.7692  -1.6217  -1.5924  -1.1343   0.6320
     1.7229   1.7994   2.5699   2.9123   3.3752   3.5860   3.7247   4.5909
     4.8692   5.0230   5.2054   5.2164   5.7944   5.8876   5.8944

          k = 0.0000 0.1165 0.0000 ( 30371 PWs)   bands (ev):

    -5.9263  -4.8813  -4.7896  -4.6565  -4.6153  -4.5345  -4.4838  -4.4263
    -4.3618  -4.3062  -4.3022  -3.9931  -3.9523  -3.8939  -3.7986  -3.7625
    -3.6501  -3.6223  -3.6114  -3.5712  -3.5100  -3.4605  -3.4017  -3.2708
    -3.2564  -3.2486  -3.2123  -3.2116  -3.1921  -3.1672  -3.1374  -3.1255
    -3.0377  -3.0292  -2.9672  -2.9664  -2.9361  -2.8615  -2.8344  -2.8073
    -2.6954  -2.6824  -2.5615  -2.4280  -2.3173  -2.2772  -2.2263  -2.1845
    -2.1770  -2.1572  -2.1343  -2.1168  -1.9390  -1.9171  -1.8846  -1.8748
    -1.8167  -1.7931  -1.7875  -1.7413  -1.6228  -1.6055  -1.1013   0.5643
     0.8752   1.9292   1.9741   2.7950   3.6076   3.7528   4.1866   4.7502
     5.0118   5.1542   5.3187   5.6434   5.6521   5.9302   5.9895

          k = 0.0000 0.2330 0.0000 ( 30367 PWs)   bands (ev):

    -5.6427  -4.7927  -4.7166  -4.6403  -4.5774  -4.5353  -4.5269  -4.5141
    -4.4307  -4.3931  -4.2923  -3.9917  -3.9632  -3.9211  -3.8794  -3.8091
    -3.7052  -3.6039  -3.5676  -3.5114  -3.4935  -3.4196  -3.3387  -3.3361
    -3.2548  -3.2069  -3.1940  -3.1712  -3.1712  -3.1591  -3.1013  -3.0664
    -3.0331  -2.9986  -2.9678  -2.9433  -2.9088  -2.8925  -2.8153  -2.7521
    -2.7155  -2.5716  -2.5440  -2.3732  -2.3328  -2.3311  -2.3054  -2.2105
    -2.2097  -2.1305  -2.1104  -2.1015  -1.9687  -1.9460  -1.9328  -1.8851
    -1.7948  -1.7710  -1.7681  -1.7495  -1.6254  -1.6062  -0.9600  -0.5447
     0.6813   1.0083   2.3262   2.6339   2.9054   4.2290   4.5940   5.0191
     5.1821   5.6047   5.7837   5.9540   6.1103   6.2806   6.2847

          k = 0.0000 0.3495 0.0000 ( 30339 PWs)   bands (ev):

    -5.2175  -4.7910  -4.7664  -4.6387  -4.4998  -4.4986  -4.4948  -4.4830
    -4.4767  -4.4669  -4.1788  -4.1172  -4.0502  -3.9587  -3.8617  -3.8008
    -3.7314  -3.5936  -3.5630  -3.5116  -3.5112  -3.4886  -3.3485  -3.3167
    -3.2998  -3.2801  -3.2597  -3.1972  -3.1873  -3.1726  -3.1112  -3.0855
    -3.0561  -3.0375  -2.9309  -2.9102  -2.7903  -2.7676  -2.7044  -2.6417
    -2.5886  -2.5671  -2.5037  -2.3904  -2.3358  -2.3295  -2.2507  -2.2383
    -2.2302  -2.2065  -2.0845  -2.0291  -1.9573  -1.9300  -1.9299  -1.8608
    -1.7975  -1.7695  -1.7469  -1.7231  -1.6208  -1.5987  -1.4459  -0.6690
    -0.2830   1.1692   1.4707   2.7466   3.5524   4.1923   4.9539   5.3264
     5.3527   5.5378   5.8353   6.0508   6.0741   6.1609   6.6534

          k = 0.0000-0.4660 0.0000 ( 30242 PWs)   bands (ev):

    -4.8144  -4.8144  -4.7658  -4.7658  -4.5574  -4.5574  -4.4803  -4.4803
    -4.4155  -4.4155  -4.1805  -4.1805  -4.0110  -4.0110  -3.8068  -3.8067
    -3.6887  -3.6887  -3.5719  -3.5719  -3.5227  -3.5227  -3.3301  -3.3300
    -3.3292  -3.3292  -3.2441  -3.2440  -3.2093  -3.2092  -3.0785  -3.0785
    -3.0663  -3.0662  -2.8467  -2.8466  -2.8257  -2.8256  -2.5973  -2.5973
    -2.4914  -2.4913  -2.4627  -2.4626  -2.3299  -2.3299  -2.2423  -2.2421
    -2.1831  -2.1830  -2.0602  -2.0601  -1.9939  -1.9939  -1.8911  -1.8910
    -1.7869  -1.7868  -1.7274  -1.7273  -1.6049  -1.6048  -1.2948  -1.2947
     0.2188   0.2189   2.1003   2.1003   4.6040   4.6040   4.6312   4.6312
     5.6612   5.6612   5.8885   5.8885   6.1499   6.1504   6.4857

          k = 0.1250-0.0000 0.0000 ( 30357 PWs)   bands (ev):

    -5.9062  -4.8492  -4.7936  -4.7663  -4.6429  -4.5031  -4.3910  -4.3176
    -4.2688  -4.2453  -4.1353  -4.0627  -3.9608  -3.8451  -3.7713  -3.7150
    -3.7128  -3.7116  -3.6340  -3.6235  -3.5379  -3.5277  -3.4588  -3.4022
    -3.3051  -3.2995  -3.2969  -3.2812  -3.2748  -3.1679  -3.0418  -3.0237
    -2.9868  -2.9722  -2.9506  -2.9414  -2.9061  -2.8534  -2.8328  -2.7984
    -2.7524  -2.6169  -2.4716  -2.4653  -2.3549  -2.2178  -2.2043  -2.1881
    -2.1685  -2.1329  -2.1298  -2.0016  -1.9256  -1.9199  -1.8949  -1.8870
    -1.8600  -1.8164  -1.7725  -1.7663  -1.6806  -1.6772  -1.0652   0.7355
     0.9019   1.8532   2.5024   2.6820   2.9285   3.5140   3.7405   4.5022
     4.7180   5.1222   5.3245   5.3592   5.9991   6.0041   6.0630

          k = 0.1250 0.1165 0.0000 ( 30355 PWs)   bands (ev):

    -5.8106  -4.8320  -4.7542  -4.7351  -4.6197  -4.5398  -4.4432  -4.3769
    -4.3535  -4.2678  -4.1572  -3.9772  -3.9503  -3.8334  -3.7977  -3.7811
    -3.7370  -3.6710  -3.6460  -3.6015  -3.4972  -3.4749  -3.4261  -3.4253
    -3.4016  -3.3147  -3.2459  -3.2344  -3.1425  -3.1308  -3.1227  -3.0234
    -3.0134  -2.9691  -2.9364  -2.9166  -2.8602  -2.8343  -2.8092  -2.7945
    -2.6770  -2.6563  -2.4794  -2.4205  -2.3478  -2.2688  -2.2330  -2.2170
    -2.1534  -2.1515  -2.1059  -1.9941  -1.9300  -1.9109  -1.9022  -1.8876
    -1.8802  -1.8709  -1.7916  -1.7208  -1.6946  -1.6822  -1.0393   0.6316
     0.9544   1.1260   2.0269   2.6373   2.9164   3.7713   4.1386   4.4787
     4.8555   5.2519   5.4281   5.7139   6.0337   6.1678   6.1729

          k = 0.1250 0.2330 0.0000 ( 30324 PWs)   bands (ev):

    -5.5377  -4.8073  -4.6826  -4.6539  -4.6223  -4.5994  -4.5460  -4.5004
    -4.3663  -4.2498  -4.1330  -3.9757  -3.9688  -3.8899  -3.8615  -3.8568
    -3.7139  -3.6891  -3.5963  -3.5349  -3.5206  -3.4559  -3.3853  -3.3573
    -3.3454  -3.3015  -3.2585  -3.2471  -3.1711  -3.1533  -3.0866  -3.0572
    -2.9850  -2.9674  -2.9492  -2.8498  -2.8309  -2.7909  -2.7374  -2.7218
    -2.5557  -2.5549  -2.4895  -2.3673  -2.3612  -2.3165  -2.3046  -2.1928
    -2.1918  -2.1149  -2.1018  -2.0486  -2.0083  -1.9577  -1.8983  -1.8767
    -1.8578  -1.8374  -1.7546  -1.7410  -1.6856  -1.6832  -0.9156  -0.5112
     0.7670   1.0980   1.6980   2.4053   3.0129   3.0844   4.6658   4.7567
     4.9296   5.1621   5.7038   5.9542   6.1768   6.2951   6.3510

          k = 0.1250 0.3495 0.0000 ( 30314 PWs)   bands (ev):

    -5.1403  -4.8029  -4.7308  -4.7195  -4.7038  -4.5513  -4.4701  -4.4542
    -4.3002  -4.2219  -4.1345  -4.0782  -4.0550  -3.9764  -3.8691  -3.8477
    -3.6882  -3.6476  -3.5541  -3.5451  -3.5327  -3.4814  -3.3961  -3.3726
    -3.3348  -3.3161  -3.2813  -3.2764  -3.2360  -3.2315  -3.0685  -3.0242
    -3.0004  -2.9806  -2.9105  -2.8372  -2.7918  -2.7504  -2.6376  -2.6194
    -2.5561  -2.4214  -2.4120  -2.3729  -2.3375  -2.3140  -2.2387  -2.2193
    -2.1696  -2.1484  -2.0803  -2.0291  -1.9742  -1.9263  -1.9093  -1.8661
    -1.8386  -1.8026  -1.7794  -1.7386  -1.6768  -1.6548  -1.4208  -0.6316
    -0.2096   1.2478   1.5520   2.4378   2.8377   3.6314   4.1904   4.2358
     5.0667   5.3146   5.4491   5.5489   6.1774   6.5269   6.8163

          k = 0.1250-0.4660 0.0000 ( 30312 PWs)   bands (ev):

    -4.8001  -4.8001  -4.7787  -4.7787  -4.6876  -4.6876  -4.3927  -4.3927
    -4.2321  -4.2321  -4.1751  -4.1751  -4.0468  -4.0468  -3.8120  -3.8120
    -3.6546  -3.6546  -3.5898  -3.5898  -3.5345  -3.5345  -3.3807  -3.3806
    -3.3510  -3.3510  -3.3138  -3.3136  -3.2316  -3.2316  -3.0498  -3.0498
    -2.9793  -2.9793  -2.8632  -2.8632  -2.7550  -2.7550  -2.6139  -2.6139
    -2.4669  -2.4669  -2.4097  -2.4097  -2.2483  -2.2483  -2.1988  -2.1987
    -2.1538  -2.1537  -2.0341  -2.0341  -1.9522  -1.9522  -1.8959  -1.8959
    -1.8177  -1.8177  -1.7923  -1.7923  -1.6809  -1.6808  -1.2391  -1.2390
     0.2815   0.2815   2.1713   2.1713   3.2871   3.2871   4.3256   4.3257
     4.7011   4.7011   5.6814   5.6814   6.5128   6.5135   6.8233

          k = 0.1250-0.3495 0.0000 ( 30314 PWs)   bands (ev):

    -5.1403  -4.8029  -4.7308  -4.7195  -4.7038  -4.5513  -4.4701  -4.4542
    -4.3002  -4.2219  -4.1345  -4.0782  -4.0550  -3.9764  -3.8691  -3.8477
    -3.6882  -3.6476  -3.5541  -3.5451  -3.5327  -3.4814  -3.3961  -3.3726
    -3.3348  -3.3161  -3.2813  -3.2764  -3.2360  -3.2315  -3.0685  -3.0242
    -3.0004  -2.9806  -2.9105  -2.8372  -2.7918  -2.7504  -2.6376  -2.6194
    -2.5561  -2.4214  -2.4120  -2.3729  -2.3375  -2.3140  -2.2387  -2.2193
    -2.1696  -2.1484  -2.0803  -2.0291  -1.9742  -1.9263  -1.9093  -1.8661
    -1.8386  -1.8026  -1.7794  -1.7386  -1.6768  -1.6548  -1.4208  -0.6316
    -0.2096   1.2478   1.5520   2.4378   2.8377   3.6314   4.1904   4.2358
     5.0667   5.3146   5.4491   5.5489   6.1774   6.5270   6.8167

          k = 0.1250-0.2330 0.0000 ( 30324 PWs)   bands (ev):

    -5.5377  -4.8073  -4.6826  -4.6539  -4.6223  -4.5994  -4.5460  -4.5004
    -4.3663  -4.2498  -4.1330  -3.9757  -3.9688  -3.8899  -3.8615  -3.8568
    -3.7139  -3.6891  -3.5963  -3.5349  -3.5206  -3.4559  -3.3853  -3.3573
    -3.3454  -3.3015  -3.2585  -3.2471  -3.1711  -3.1533  -3.0866  -3.0572
    -2.9850  -2.9674  -2.9492  -2.8498  -2.8309  -2.7909  -2.7374  -2.7218
    -2.5557  -2.5549  -2.4895  -2.3673  -2.3612  -2.3165  -2.3046  -2.1928
    -2.1918  -2.1149  -2.1018  -2.0486  -2.0083  -1.9577  -1.8983  -1.8767
    -1.8578  -1.8374  -1.7546  -1.7410  -1.6856  -1.6832  -0.9156  -0.5112
     0.7670   1.0980   1.6980   2.4053   3.0129   3.0844   4.6658   4.7567
     4.9296   5.1621   5.7038   5.9542   6.1768   6.2951   6.5000

          k = 0.1250-0.1165 0.0000 ( 30355 PWs)   bands (ev):

    -5.8106  -4.8320  -4.7542  -4.7351  -4.6197  -4.5398  -4.4432  -4.3769
    -4.3535  -4.2678  -4.1572  -3.9772  -3.9503  -3.8334  -3.7977  -3.7811
    -3.7370  -3.6710  -3.6460  -3.6015  -3.4972  -3.4749  -3.4261  -3.4253
    -3.4016  -3.3147  -3.2459  -3.2344  -3.1425  -3.1308  -3.1227  -3.0234
    -3.0134  -2.9691  -2.9364  -2.9166  -2.8602  -2.8343  -2.8092  -2.7945
    -2.6770  -2.6563  -2.4794  -2.4205  -2.3478  -2.2688  -2.2330  -2.2170
    -2.1534  -2.1515  -2.1059  -1.9941  -1.9300  -1.9109  -1.9022  -1.8876
    -1.8802  -1.8709  -1.7916  -1.7208  -1.6946  -1.6822  -1.0393   0.6316
     0.9544   1.1260   2.0269   2.6373   2.9164   3.7713   4.1386   4.4787
     4.8555   5.2519   5.4281   5.7139   6.0337   6.1678   6.1729

          k = 0.2500-0.0000 0.0000 ( 30361 PWs)   bands (ev):

    -5.5684  -4.8663  -4.7029  -4.6734  -4.5353  -4.3962  -4.3620  -4.3155
    -4.2875  -4.1366  -4.0955  -3.9470  -3.9459  -3.9102  -3.7783  -3.7455
    -3.7437  -3.7411  -3.6795  -3.6666  -3.6397  -3.5758  -3.4210  -3.3709
    -3.3474  -3.3385  -3.3307  -3.3151  -3.3140  -3.2371  -3.1051  -3.0353
    -3.0063  -2.9744  -2.9304  -2.8681  -2.8332  -2.7661  -2.7447  -2.7009
    -2.5570  -2.5293  -2.4621  -2.3773  -2.3308  -2.2038  -2.1952  -2.1867
    -2.1654  -2.1625  -2.1513  -2.1390  -2.0599  -2.0133  -1.9421  -1.8724
    -1.8127  -1.8085  -1.7802  -1.7729  -1.7033  -1.6854  -0.8551  -0.4335
     1.0375   1.0565   2.0299   2.8258   2.9240   3.0142   3.8908   4.0730
     4.8298   5.0671   5.4964   5.6474   5.8022   6.3074   6.3306

          k = 0.2500 0.1165 0.0000 ( 30338 PWs)   bands (ev):

    -5.4820  -4.8345  -4.7197  -4.6587  -4.5410  -4.5311  -4.3392  -4.3238
    -4.3018  -4.1503  -4.0657  -4.0542  -3.9617  -3.8940  -3.8320  -3.7407
    -3.7397  -3.7276  -3.6741  -3.6118  -3.5660  -3.5237  -3.4654  -3.4451
    -3.4275  -3.3653  -3.2981  -3.2850  -3.2121  -3.1471  -3.1428  -3.0380
    -3.0180  -2.9405  -2.9060  -2.7962  -2.7774  -2.7206  -2.6747  -2.6456
    -2.5777  -2.5556  -2.4398  -2.3504  -2.3353  -2.2382  -2.2356  -2.1868
    -2.1681  -2.1644  -2.1284  -2.0955  -2.0716  -2.0041  -1.9824  -1.8970
    -1.8468  -1.8280  -1.8064  -1.7677  -1.7034  -1.6651  -0.8349  -0.2084
     0.8534   1.1282   1.2602   2.2932   2.9450   3.3037   3.7243   4.1543
     4.8521   5.1573   5.2156   5.7016   5.8327   6.0868   6.3355

          k = 0.2500 0.2330 0.0000 ( 30302 PWs)   bands (ev):

    -5.2448  -4.8150  -4.7440  -4.7104  -4.5599  -4.5158  -4.4473  -4.4054
    -4.2832  -4.1847  -4.0589  -4.0353  -3.9762  -3.9354  -3.8574  -3.8281
    -3.7327  -3.7223  -3.6643  -3.5794  -3.5502  -3.5317  -3.4832  -3.4281
    -3.3652  -3.3493  -3.2692  -3.2599  -3.2161  -3.1856  -3.0504  -3.0218
    -2.9496  -2.9033  -2.8714  -2.7576  -2.7534  -2.6531  -2.6114  -2.5197
    -2.4980  -2.4219  -2.3986  -2.3318  -2.3231  -2.3192  -2.2756  -2.1588
    -2.1443  -2.1367  -2.1187  -2.0811  -2.0612  -2.0214  -1.9755  -1.9060
    -1.8616  -1.8507  -1.8067  -1.7848  -1.6872  -1.6744  -0.7247  -0.3405
     0.3055   1.0482   1.3521   1.5115   2.7849   3.0875   3.3961   3.4680
     4.8366   4.8594   4.9155   5.3349   6.0240   6.3756   6.6841

          k = 0.2500 0.3495 0.0000 ( 30286 PWs)   bands (ev):

    -4.9579  -4.8821  -4.7911  -4.6475  -4.6195  -4.6191  -4.3961  -4.3344
    -4.2237  -4.1498  -4.1328  -4.0790  -4.0257  -3.9567  -3.9302  -3.8888
    -3.7381  -3.6942  -3.6175  -3.5706  -3.5436  -3.5184  -3.4297  -3.4175
    -3.3916  -3.3322  -3.2990  -3.2607  -3.2248  -3.1904  -3.0455  -2.9980
    -2.9830  -2.9428  -2.7996  -2.7382  -2.6373  -2.5992  -2.5732  -2.4828
    -2.4468  -2.4304  -2.3734  -2.3527  -2.2702  -2.2305  -2.1940  -2.1240
    -2.0857  -2.0777  -2.0456  -2.0447  -2.0238  -1.9765  -1.9751  -1.9332
    -1.8330  -1.8257  -1.8043  -1.7089  -1.6983  -1.6757  -1.2970  -0.4596
     0.0279   0.9732   1.4615   1.7551   2.1431   2.5871   2.9561   3.4620
     4.0539   4.4412   4.8274   5.1767   6.2362   6.4841   6.9427

          k = 0.2500-0.4660 0.0000 ( 30312 PWs)   bands (ev):

    -4.9020  -4.9020  -4.6969  -4.6968  -4.6173  -4.6173  -4.3537  -4.3537
    -4.1429  -4.1429  -4.0914  -4.0914  -4.0559  -4.0559  -3.9607  -3.9607
    -3.6497  -3.6497  -3.5885  -3.5885  -3.5506  -3.5506  -3.3997  -3.3997
    -3.3917  -3.3916  -3.3081  -3.3081  -3.1994  -3.1993  -3.0136  -3.0135
    -2.9759  -2.9758  -2.6968  -2.6968  -2.6721  -2.6721  -2.5133  -2.5133
    -2.4532  -2.4531  -2.3451  -2.3451  -2.2531  -2.2531  -2.0917  -2.0917
    -2.0695  -2.0694  -2.0313  -2.0313  -1.9370  -1.9370  -1.8728  -1.8728
    -1.8490  -1.8490  -1.7870  -1.7870  -1.7490  -1.7490  -1.0906  -1.0906
     0.4979   0.4980   1.7159   1.7159   2.3563   2.3564   2.7949   2.7949
     4.3644   4.3644   4.6947   4.6947   6.7426   6.7469   6.8990

          k = 0.2500-0.3495 0.0000 ( 30286 PWs)   bands (ev):

    -4.9579  -4.8821  -4.7911  -4.6475  -4.6195  -4.6191  -4.3961  -4.3344
    -4.2237  -4.1498  -4.1328  -4.0790  -4.0257  -3.9567  -3.9302  -3.8888
    -3.7381  -3.6942  -3.6175  -3.5706  -3.5436  -3.5184  -3.4297  -3.4175
    -3.3916  -3.3322  -3.2990  -3.2607  -3.2248  -3.1904  -3.0455  -2.9980
    -2.9830  -2.9428  -2.7996  -2.7382  -2.6373  -2.5992  -2.5732  -2.4828
    -2.4468  -2.4304  -2.3734  -2.3527  -2.2702  -2.2305  -2.1940  -2.1240
    -2.0857  -2.0777  -2.0456  -2.0447  -2.0238  -1.9765  -1.9751  -1.9332
    -1.8330  -1.8257  -1.8043  -1.7089  -1.6983  -1.6757  -1.2970  -0.4596
     0.0279   0.9732   1.4615   1.7551   2.1431   2.5871   2.9561   3.4620
     4.0539   4.4412   4.8274   5.1767   6.2362   6.4841   6.9428

          k = 0.2500-0.2330 0.0000 ( 30302 PWs)   bands (ev):

    -5.2448  -4.8150  -4.7440  -4.7104  -4.5599  -4.5158  -4.4473  -4.4054
    -4.2832  -4.1847  -4.0589  -4.0353  -3.9762  -3.9354  -3.8574  -3.8281
    -3.7327  -3.7223  -3.6643  -3.5794  -3.5502  -3.5317  -3.4832  -3.4281
    -3.3652  -3.3493  -3.2692  -3.2599  -3.2161  -3.1856  -3.0504  -3.0218
    -2.9496  -2.9033  -2.8714  -2.7576  -2.7534  -2.6531  -2.6114  -2.5197
    -2.4980  -2.4219  -2.3986  -2.3318  -2.3231  -2.3192  -2.2756  -2.1588
    -2.1443  -2.1367  -2.1187  -2.0811  -2.0612  -2.0214  -1.9755  -1.9060
    -1.8616  -1.8507  -1.8067  -1.7848  -1.6872  -1.6744  -0.7247  -0.3405
     0.3055   1.0482   1.3521   1.5115   2.7849   3.0875   3.3961   3.4680
     4.8366   4.8594   4.9155   5.3349   6.0240   6.3758   6.6845

          k = 0.2500-0.1165 0.0000 ( 30338 PWs)   bands (ev):

    -5.4820  -4.8345  -4.7197  -4.6587  -4.5410  -4.5311  -4.3392  -4.3238
    -4.3018  -4.1503  -4.0657  -4.0542  -3.9617  -3.8940  -3.8320  -3.7407
    -3.7397  -3.7276  -3.6741  -3.6118  -3.5660  -3.5237  -3.4654  -3.4451
    -3.4275  -3.3653  -3.2981  -3.2850  -3.2121  -3.1471  -3.1428  -3.0380
    -3.0180  -2.9405  -2.9060  -2.7962  -2.7774  -2.7206  -2.6747  -2.6456
    -2.5777  -2.5556  -2.4398  -2.3504  -2.3353  -2.2382  -2.2356  -2.1868
    -2.1681  -2.1644  -2.1284  -2.0955  -2.0716  -2.0041  -1.9824  -1.8970
    -1.8468  -1.8280  -1.8064  -1.7677  -1.7034  -1.6651  -0.8349  -0.2084
     0.8534   1.1282   1.2602   2.2932   2.9450   3.3037   3.7243   4.1543
     4.8521   5.1573   5.2156   5.7016   5.8327   6.0867   6.3355

          k = 0.3750-0.0000 0.0000 ( 30267 PWs)   bands (ev):

    -5.0873  -4.8521  -4.6053  -4.5249  -4.4444  -4.3550  -4.3403  -4.3243
    -4.3019  -4.2679  -4.0225  -3.9519  -3.9035  -3.8795  -3.7606  -3.7529
    -3.7504  -3.7475  -3.6900  -3.6322  -3.5810  -3.4761  -3.4322  -3.4062
    -3.3810  -3.3674  -3.3373  -3.3361  -3.3115  -3.2127  -3.1969  -3.0786
    -3.0005  -2.9627  -2.9217  -2.9195  -2.7882  -2.7831  -2.7540  -2.6055
    -2.5520  -2.5468  -2.4583  -2.4101  -2.3730  -2.3086  -2.2397  -2.2254
    -2.1796  -2.0754  -2.0492  -2.0421  -2.0389  -1.9665  -1.9209  -1.8905
    -1.8091  -1.8058  -1.7529  -1.7449  -1.7085  -1.6467  -1.5141  -0.4026
    -0.2446   1.5019   1.6253   2.3346   2.8680   3.5441   3.5521   4.2844
     4.3895   5.4802   5.5894   5.9075   6.0924   6.1804   6.2835

          k = 0.3750 0.1165 0.0000 ( 30287 PWs)   bands (ev):

    -5.0174  -4.8232  -4.6036  -4.5492  -4.5097  -4.4686  -4.3427  -4.3415
    -4.2685  -4.1634  -4.1409  -4.1033  -3.9062  -3.8759  -3.8588  -3.7550
    -3.7148  -3.7030  -3.6889  -3.6123  -3.5696  -3.5034  -3.4643  -3.4064
    -3.3702  -3.3697  -3.3421  -3.2774  -3.1983  -3.1871  -3.1149  -3.0401
    -3.0348  -2.8966  -2.8872  -2.8342  -2.8277  -2.6781  -2.6702  -2.6157
    -2.5359  -2.4892  -2.4211  -2.3983  -2.3815  -2.3581  -2.2405  -2.2334
    -2.1954  -2.1189  -2.0668  -2.0631  -1.9988  -1.9846  -1.9399  -1.8802
    -1.8376  -1.7999  -1.7507  -1.7468  -1.6730  -1.6587  -1.2952  -0.3673
    -0.1457   1.3173   1.5539   1.7418   2.8489   2.9163   3.5503   3.7803
     4.5881   4.7543   5.3936   5.5765   6.1343   6.2627   6.5773

          k = 0.3750 0.2330 0.0000 ( 30255 PWs)   bands (ev):

    -4.8611  -4.7598  -4.7381  -4.6680  -4.4871  -4.4453  -4.3964  -4.3466
    -4.2808  -4.2596  -4.2139  -4.1146  -3.9295  -3.9248  -3.8787  -3.8037
    -3.7967  -3.7246  -3.6663  -3.6458  -3.6383  -3.5302  -3.4319  -3.4073
    -3.3478  -3.3473  -3.2788  -3.1701  -3.1121  -3.0689  -3.0343  -2.9847
    -2.9700  -2.8848  -2.8666  -2.7166  -2.6912  -2.6872  -2.5473  -2.5197
    -2.4535  -2.4448  -2.4026  -2.3586  -2.3525  -2.3131  -2.2474  -2.2007
    -2.1772  -2.1361  -2.0551  -2.0485  -1.9890  -1.9701  -1.9370  -1.8594
    -1.8544  -1.7940  -1.7597  -1.7038  -1.6785  -1.6413  -0.8536  -0.2260
     0.0756   0.2084   1.4692   1.8518   1.8682   2.1083   3.1181   3.2750
     3.9685   4.1151   4.9280   5.0742   6.2966   6.5200   6.9368

          k = 0.3750 0.3495 0.0000 ( 30296 PWs)   bands (ev):

    -4.8633  -4.8579  -4.6489  -4.6268  -4.5918  -4.5079  -4.3945  -4.3123
    -4.2430  -4.2331  -4.1593  -4.1512  -3.9719  -3.9636  -3.9307  -3.8037
    -3.7895  -3.7863  -3.7198  -3.6679  -3.6284  -3.6040  -3.4360  -3.4040
    -3.2908  -3.2447  -3.2154  -3.1678  -3.1530  -3.0257  -2.9826  -2.9674
    -2.9172  -2.9077  -2.7369  -2.7348  -2.6571  -2.6013  -2.5415  -2.4751
    -2.4574  -2.4267  -2.3388  -2.3261  -2.2977  -2.2560  -2.1696  -2.1538
    -2.1058  -2.0687  -2.0124  -1.9799  -1.9402  -1.8981  -1.8533  -1.8343
    -1.8283  -1.8261  -1.7730  -1.6866  -1.6601  -1.3706  -0.8548  -0.3095
     0.0201   0.5169   0.6211   1.1715   1.9039   2.0464   2.2679   2.3245
     3.8773   3.8952   4.3892   4.5177   6.6512   6.6999   7.0752

          k = 0.3750-0.4660 0.0000 ( 30298 PWs)   bands (ev):

    -4.8959  -4.8959  -4.6542  -4.6542  -4.5028  -4.5028  -4.3736  -4.3736
    -4.2674  -4.2674  -4.0753  -4.0753  -3.9647  -3.9647  -3.9400  -3.9400
    -3.7881  -3.7881  -3.6659  -3.6659  -3.5911  -3.5911  -3.4688  -3.4688
    -3.2823  -3.2822  -3.1416  -3.1416  -3.0583  -3.0582  -2.9901  -2.9901
    -2.8888  -2.8887  -2.7632  -2.7632  -2.6022  -2.6022  -2.5407  -2.5407
    -2.4192  -2.4192  -2.3158  -2.3157  -2.2618  -2.2617  -2.1567  -2.1566
    -2.0541  -2.0540  -1.9495  -1.9495  -1.8525  -1.8525  -1.8298  -1.8298
    -1.8209  -1.8209  -1.6810  -1.6810  -1.5174  -1.5174  -0.6755  -0.6754
     0.3533   0.3533   0.9094   0.9094   1.4101   1.4102   2.3759   2.3759
     3.5817   3.5817   4.4268   4.4268   6.6580   6.6581   7.2640

          k = 0.3750-0.3495 0.0000 ( 30296 PWs)   bands (ev):

    -4.8633  -4.8579  -4.6489  -4.6268  -4.5918  -4.5079  -4.3945  -4.3123
    -4.2430  -4.2331  -4.1593  -4.1512  -3.9719  -3.9636  -3.9307  -3.8037
    -3.7895  -3.7863  -3.7198  -3.6679  -3.6284  -3.6040  -3.4360  -3.4040
    -3.2908  -3.2447  -3.2154  -3.1678  -3.1530  -3.0257  -2.9826  -2.9674
    -2.9172  -2.9077  -2.7369  -2.7348  -2.6571  -2.6013  -2.5415  -2.4751
    -2.4574  -2.4267  -2.3388  -2.3261  -2.2977  -2.2560  -2.1696  -2.1538
    -2.1058  -2.0687  -2.0124  -1.9799  -1.9402  -1.8981  -1.8533  -1.8343
    -1.8283  -1.8261  -1.7730  -1.6866  -1.6601  -1.3706  -0.8548  -0.3095
     0.0201   0.5169   0.6211   1.1715   1.9039   2.0464   2.2679   2.3245
     3.8773   3.8952   4.3892   4.5177   6.6512   6.6998   7.0752

          k = 0.3750-0.2330 0.0000 ( 30255 PWs)   bands (ev):

    -4.8611  -4.7598  -4.7381  -4.6680  -4.4871  -4.4453  -4.3964  -4.3466
    -4.2808  -4.2596  -4.2139  -4.1146  -3.9295  -3.9248  -3.8787  -3.8037
    -3.7967  -3.7246  -3.6663  -3.6458  -3.6383  -3.5302  -3.4319  -3.4073
    -3.3478  -3.3473  -3.2788  -3.1701  -3.1121  -3.0689  -3.0343  -2.9847
    -2.9700  -2.8848  -2.8666  -2.7166  -2.6912  -2.6872  -2.5473  -2.5197
    -2.4535  -2.4448  -2.4026  -2.3586  -2.3525  -2.3131  -2.2474  -2.2007
    -2.1772  -2.1361  -2.0551  -2.0485  -1.9890  -1.9701  -1.9370  -1.8594
    -1.8544  -1.7940  -1.7597  -1.7038  -1.6785  -1.6413  -0.8536  -0.2260
     0.0756   0.2084   1.4692   1.8518   1.8682   2.1083   3.1181   3.2750
     3.9685   4.1151   4.9280   5.0742   6.2966   6.5200   6.9375

          k = 0.3750-0.1165 0.0000 ( 30287 PWs)   bands (ev):

    -5.0174  -4.8232  -4.6036  -4.5492  -4.5097  -4.4686  -4.3427  -4.3415
    -4.2685  -4.1634  -4.1409  -4.1033  -3.9062  -3.8759  -3.8588  -3.7550
    -3.7148  -3.7030  -3.6889  -3.6123  -3.5696  -3.5034  -3.4643  -3.4064
    -3.3702  -3.3697  -3.3421  -3.2774  -3.1983  -3.1871  -3.1149  -3.0401
    -3.0348  -2.8966  -2.8872  -2.8342  -2.8277  -2.6781  -2.6702  -2.6157
    -2.5359  -2.4892  -2.4211  -2.3983  -2.3815  -2.3581  -2.2405  -2.2334
    -2.1954  -2.1189  -2.0668  -2.0631  -1.9988  -1.9846  -1.9399  -1.8802
    -1.8376  -1.7999  -1.7507  -1.7468  -1.6730  -1.6587  -1.2952  -0.3673
    -0.1457   1.3173   1.5539   1.7418   2.8489   2.9163   3.5503   3.7803
     4.5881   4.7543   5.3936   5.5765   6.1345   6.2628   6.5775

          k =-0.5000 0.0000 0.0000 ( 30196 PWs)   bands (ev):

    -4.7148  -4.7148  -4.6815  -4.6815  -4.3687  -4.3687  -4.3524  -4.3524
    -4.1561  -4.1561  -4.1355  -4.1354  -3.8014  -3.8014  -3.7541  -3.7541
    -3.7405  -3.7405  -3.6230  -3.6230  -3.5887  -3.5887  -3.4010  -3.4010
    -3.3937  -3.3937  -3.2999  -3.2999  -3.1751  -3.1751  -3.1289  -3.1289
    -3.0137  -3.0137  -2.8851  -2.8851  -2.8237  -2.8237  -2.7592  -2.7592
    -2.7234  -2.7234  -2.5258  -2.5258  -2.2631  -2.2631  -2.1994  -2.1994
    -2.0828  -2.0828  -2.0433  -2.0433  -1.9812  -1.9812  -1.8353  -1.8353
    -1.7876  -1.7876  -1.7808  -1.7807  -1.7348  -1.7348  -1.2408  -1.2408
     0.3967   0.3967   2.4588   2.4588   2.6687   2.6687   4.1798   4.1798
     4.8081   4.8081   5.8657   5.8657   6.1436   6.1437   6.6232

          k =-0.5000 0.1165 0.0000 ( 30222 PWs)   bands (ev):

    -4.6942  -4.6942  -4.6256  -4.6256  -4.4500  -4.4500  -4.4237  -4.4237
    -4.1632  -4.1632  -4.1242  -4.1242  -3.9458  -3.9458  -3.7872  -3.7872
    -3.6898  -3.6898  -3.6665  -3.6665  -3.5438  -3.5438  -3.4045  -3.4045
    -3.3231  -3.3231  -3.2482  -3.2482  -3.1670  -3.1670  -3.1181  -3.1181
    -2.8876  -2.8876  -2.8865  -2.8865  -2.7973  -2.7973  -2.7302  -2.7302
    -2.6945  -2.6945  -2.4542  -2.4542  -2.2748  -2.2748  -2.2670  -2.2670
    -2.0663  -2.0663  -2.0406  -2.0406  -1.9167  -1.9167  -1.8380  -1.8380
    -1.7981  -1.7981  -1.7863  -1.7863  -1.7113  -1.7113  -1.1654  -1.1654
     0.4451   0.4451   2.0285   2.0285   2.5218   2.5218   3.5302   3.5302
     4.6708   4.6708   5.4174   5.4175   6.6295   6.6300   6.7528

          k =-0.5000 0.2330 0.0000 ( 30230 PWs)   bands (ev):

    -4.6589  -4.6589  -4.6220  -4.6220  -4.5802  -4.5802  -4.4315  -4.4315
    -4.1636  -4.1635  -4.1113  -4.1113  -4.0087  -4.0087  -3.9317  -3.9317
    -3.7620  -3.7620  -3.7006  -3.7006  -3.5145  -3.5145  -3.4410  -3.4410
    -3.2715  -3.2715  -3.1366  -3.1366  -3.1030  -3.1030  -2.9735  -2.9735
    -2.8335  -2.8335  -2.8102  -2.8102  -2.7552  -2.7552  -2.7060  -2.7060
    -2.5347  -2.5347  -2.3443  -2.3443  -2.2772  -2.2772  -2.2669  -2.2669
    -2.0982  -2.0982  -2.0430  -2.0430  -1.8722  -1.8722  -1.8415  -1.8415
    -1.7694  -1.7694  -1.7037  -1.7037  -1.6311  -1.6311  -0.9377  -0.9377
     0.6091   0.6091   0.9700   0.9700   2.3407   2.3407   2.5759   2.5759
     4.2786   4.2786   4.5836   4.5836   6.9095   6.9136   6.9200

          k =-0.5000 0.3495 0.0000 ( 30248 PWs)   bands (ev):

    -4.7417  -4.7417  -4.7317  -4.7317  -4.5253  -4.5253  -4.3806  -4.3806
    -4.1384  -4.1384  -4.1338  -4.1338  -3.9975  -3.9975  -3.9388  -3.9388
    -3.8021  -3.8021  -3.7709  -3.7709  -3.5389  -3.5389  -3.5010  -3.5010
    -3.2516  -3.2516  -3.1197  -3.1197  -2.9699  -2.9699  -2.8815  -2.8815
    -2.7848  -2.7848  -2.7617  -2.7617  -2.7027  -2.7027  -2.6722  -2.6722
    -2.5543  -2.5543  -2.4316  -2.4316  -2.1365  -2.1365  -2.1182  -2.1182
    -2.0511  -2.0511  -1.9750  -1.9750  -1.8867  -1.8867  -1.8603  -1.8603
    -1.7457  -1.7457  -1.7203  -1.7203  -1.2675  -1.2675  -0.5277  -0.5277
     0.0153   0.0153   0.8248   0.8248   1.3574   1.3574   2.3468   2.3468
     3.6770   3.6770   4.3034   4.3034   6.7046   6.7046   7.3482

          k =-0.5000-0.4660 0.0000 ( 30304 PWs)   bands (ev):

    -4.7789  -4.7789  -4.7789  -4.7789  -4.4320  -4.4320  -4.4320  -4.4320
    -4.1623  -4.1623  -4.1623  -4.1622  -3.9320  -3.9320  -3.9319  -3.9319
    -3.7663  -3.7663  -3.7663  -3.7663  -3.5765  -3.5765  -3.5765  -3.5765
    -3.1626  -3.1626  -3.1625  -3.1625  -2.9022  -2.9022  -2.9022  -2.9022
    -2.7460  -2.7460  -2.7460  -2.7459  -2.6850  -2.6850  -2.6849  -2.6849
    -2.5279  -2.5279  -2.5278  -2.5278  -2.0806  -2.0806  -2.0805  -2.0805
    -1.9916  -1.9916  -1.9916  -1.9916  -1.8175  -1.8175  -1.8175  -1.8175
    -1.7538  -1.7538  -1.7538  -1.7538  -0.7520  -0.7520  -0.7520  -0.7520
     0.1681   0.1681   0.1682   0.1682   1.6802   1.6802   1.6803   1.6803
     3.8764   3.8764   3.8765   3.8765   6.9996   6.9997   6.9998

     the Fermi energy is     1.1782 ev

!    total energy              =   -1011.36194510 Ry
     estimated scf accuracy    <       0.00000063 Ry
     smearing contrib. (-TS)   =      -0.00099347 Ry
     internal energy E=F+TS    =   -1011.36095163 Ry

     The total energy is F=E-TS. E is the sum of the following terms:
     one-electron contribution =  -10401.87716548 Ry
     hartree contribution      =    5292.56091964 Ry
     xc contribution           =    -267.77505967 Ry
     ewald contribution        =    4366.03356098 Ry
     DFT-D3 Dispersion         =      -0.30320710 Ry

     convergence has been achieved in  10 iterations

     negative rho (up, down):  3.941E-05 0.000E+00

     Forces acting on atoms (cartesian axes, Ry/au):

     atom    1 type  1   force =    -0.00000007    0.00058284   -0.00954731
     atom    2 type  1   force =    -0.00000045   -0.00213987   -0.00932265
     atom    3 type  1   force =    -0.00000173    0.00005378    0.00709074
     atom    4 type  1   force =     0.00000195    0.00111110    0.00700351
     atom    5 type  1   force =    -0.00000195    0.00325479   -0.00174106
     atom    6 type  1   force =     0.00000126   -0.00349994   -0.00118426
     atom    7 type  1   force =    -0.00000070    0.00349903    0.00115675
     atom    8 type  1   force =     0.00000007   -0.00325900    0.00171411
     atom    9 type  1   force =     0.00000043   -0.00111324   -0.00697176
     atom   10 type  1   force =     0.00000110   -0.00004796   -0.00705888
     atom   11 type  1   force =     0.00000044    0.00214408    0.00931811
     atom   12 type  1   force =    -0.00000034   -0.00058561    0.00954269
     The non-local contrib.  to forces
     atom    1 type  1   force =    -0.00000006    0.03770183    0.13281796
     atom    2 type  1   force =    -0.00000068   -0.01543134    0.13720113
     atom    3 type  1   force =    -0.00000080    0.01876226    0.00193282
     atom    4 type  1   force =     0.00000057   -0.01819075    0.00498108
     atom    5 type  1   force =    -0.00000005    0.00116546    0.01473571
     atom    6 type  1   force =    -0.00000089    0.00126265    0.01472672
     atom    7 type  1   force =     0.00000059   -0.00126346   -0.01470937
     atom    8 type  1   force =    -0.00000128   -0.00116192   -0.01471780
     atom    9 type  1   force =     0.00000107    0.01819396   -0.00495305
     atom   10 type  1   force =     0.00000077   -0.01876024   -0.00190560
     atom   11 type  1   force =    -0.00000001    0.01542915   -0.13718484
     atom   12 type  1   force =    -0.00000050   -0.03769585   -0.13280162
     The ionic contribution  to forces
     atom    1 type  1   force =    -0.00000000   11.48462150  114.52615529
     atom    2 type  1   force =     0.00000000    7.43484417  114.86017530
     atom    3 type  1   force =    -0.00000000    5.57255745   73.76845713
     atom    4 type  1   force =     0.00000000    6.58916644   73.68460863
     atom    5 type  1   force =     0.00000000    2.07534645   24.13165166
     atom    6 type  1   force =    -0.00000000    1.90649238   24.14557850
     atom    7 type  1   force =    -0.00000000   -1.90649238  -24.14557850
     atom    8 type  1   force =    -0.00000000   -2.07534645  -24.13165166
     atom    9 type  1   force =    -0.00000000   -6.58916644  -73.68460863
     atom   10 type  1   force =    -0.00000000   -5.57255745  -73.76845713
     atom   11 type  1   force =    -0.00000000   -7.43484417 -114.86017530
     atom   12 type  1   force =    -0.00000000  -11.48462150 -114.52615529
     The local contribution  to forces
     atom    1 type  1   force =    -0.00000013  -11.52147993 -114.65876414
     atom    2 type  1   force =    -0.00000055   -7.42020865 -114.99702916
     atom    3 type  1   force =     0.00000352   -5.59041247  -73.75523340
     atom    4 type  1   force =    -0.00000332   -6.56938738  -73.67448717
     atom    5 type  1   force =     0.00000543   -2.07304933  -24.14531387
     atom    6 type  1   force =    -0.00000521   -1.91099556  -24.15867849
     atom    7 type  1   force =     0.00000377    1.91097606   24.15863343
     atom    8 type  1   force =    -0.00000400    2.07305875   24.14526217
     atom    9 type  1   force =     0.00000129    6.56938688   73.67425655
     atom   10 type  1   force =    -0.00000104    5.59037930   73.75500531
     atom   11 type  1   force =    -0.00000033    7.42016281  114.99687441
     atom   12 type  1   force =     0.00000011   11.52149551  114.65860231
     The core correction contribution to forces
     atom    1 type  1   force =    -0.00000006   -0.00189575   -0.00568839
     atom    2 type  1   force =     0.00000001    0.00093826   -0.00592205
     atom    3 type  1   force =     0.00000008   -0.00022815   -0.00253028
     atom    4 type  1   force =    -0.00000008   -0.00018961   -0.00253344
     atom    5 type  1   force =     0.00000017   -0.00000973   -0.00003636
     atom    6 type  1   force =    -0.00000016    0.00000374   -0.00003749
     atom    7 type  1   force =     0.00000010   -0.00000383    0.00003969
     atom    8 type  1   force =    -0.00000012    0.00001012    0.00003840
     atom    9 type  1   force =     0.00000003    0.00018957    0.00253137
     atom   10 type  1   force =    -0.00000004    0.00022794    0.00252823
     atom   11 type  1   force =    -0.00000002   -0.00093892    0.00592138
     atom   12 type  1   force =     0.00000003    0.00189616    0.00568766
     The Hubbard contrib.    to forces
     atom    1 type  1   force =     0.00000000    0.00000000    0.00000000
     atom    2 type  1   force =     0.00000000    0.00000000    0.00000000
     atom    3 type  1   force =     0.00000000    0.00000000    0.00000000
     atom    4 type  1   force =     0.00000000    0.00000000    0.00000000
     atom    5 type  1   force =     0.00000000    0.00000000    0.00000000
     atom    6 type  1   force =     0.00000000    0.00000000    0.00000000
     atom    7 type  1   force =     0.00000000    0.00000000    0.00000000
     atom    8 type  1   force =     0.00000000    0.00000000    0.00000000
     atom    9 type  1   force =     0.00000000    0.00000000    0.00000000
     atom   10 type  1   force =     0.00000000    0.00000000    0.00000000
     atom   11 type  1   force =     0.00000000    0.00000000    0.00000000
     atom   12 type  1   force =     0.00000000    0.00000000    0.00000000
     The SCF correction term to forces
     atom    1 type  1   force =     0.00000009    0.00042027   -0.00002762
     atom    2 type  1   force =     0.00000069   -0.00042134    0.00003885
     atom    3 type  1   force =    -0.00000461   -0.00032810   -0.00039030
     atom    4 type  1   force =     0.00000471    0.00026266   -0.00044122
     atom    5 type  1   force =    -0.00000000    0.00000000   -0.00000000
     atom    6 type  1   force =     0.00000000   -0.00000000   -0.00000000
     atom    7 type  1   force =    -0.00000000    0.00000000    0.00000000
     atom    8 type  1   force =     0.00000000   -0.00000000    0.00000000
     atom    9 type  1   force =    -0.00000000   -0.00000000    0.00000000
     atom   10 type  1   force =     0.00000000    0.00000000    0.00000000
     atom   11 type  1   force =     0.00000000    0.00000000    0.00000000
     atom   12 type  1   force =    -0.00000000   -0.00000000    0.00000000

     DFT-D3 dispersion contribution to forces:
     atom    1 type  1   force =     0.00000000    0.00121600   -0.00403013
     atom    2 type  1   force =    -0.00000000   -0.00185988   -0.00377643
     atom    3 type  1   force =     0.00000000   -0.00029613   -0.00513495
     atom    4 type  1   force =    -0.00000000   -0.00054919   -0.00511408
     atom    5 type  1   force =     0.00000000   -0.00027173   -0.00244917
     atom    6 type  1   force =    -0.00000000   -0.00013322   -0.00246059
     atom    7 type  1   force =     0.00000000    0.00013322    0.00246059
     atom    8 type  1   force =    -0.00000000    0.00027173    0.00244917
     atom    9 type  1   force =     0.00000000    0.00054919    0.00511408
     atom   10 type  1   force =    -0.00000000    0.00029613    0.00513495
     atom   11 type  1   force =     0.00000000    0.00185988    0.00377643
     atom   12 type  1   force =    -0.00000000   -0.00121600    0.00403013

     Total force =     0.016839     Total SCF correction =     0.000938


     Computing stress (Cartesian axis) and pressure


     negative rho (up, down):  3.941E-05 0.000E+00
          total   stress  (Ry/bohr**3)                   (kbar)     P=      -15.11
  -0.00010283   0.00000000  -0.00000000          -15.13        0.00       -0.00
   0.00000000  -0.00012848   0.00000428            0.00      -18.90        0.63
  -0.00000000   0.00000428  -0.00007686           -0.00        0.63      -11.31


     BFGS Geometry Optimization
     Energy error            =      0.0E+00 Ry
     Gradient error          =      9.5E-03 Ry/Bohr

     number of scf cycles    =   1
     number of bfgs steps    =   0

     energy             new  =   -1011.3619451001 Ry

     new trust radius        =       0.0095650819 bohr
     new conv_thr            =       0.0000010000 Ry


ATOMIC_POSITIONS (angstrom)
Ag            1.1754154133        1.1413130987       17.3106437634
Ag            3.5262461211        4.5028334360       17.0333902900
Ag            1.1754145350        3.5431482245       15.6552140806
Ag            3.5262473887        1.8622271666       15.7938541010
Ag            1.1754154525        0.9007931610       14.4032862066    0   0   0
Ag            3.5262463575        4.2637542956       14.1259138471    0   0   0
Ag            1.1754154525        3.3029082571       12.7390520498    0   0   0
Ag            3.5262463575        1.6214276899       12.8777382295    0   0   0
Ag            1.1754154525        0.6605816514       11.4908764322    0   0   0
Ag            3.5262463575        4.0235427860       11.2135040727    0   0   0
Ag            1.1754154525        3.0626967475        9.8266422753    0   0   0
Ag            3.5262463575        1.3812161803        9.9653284551    0   0   0



     Writing config-only to output data dir ./Ag_110/Ag_110.save/
     NEW-OLD atomic charge density approx. for the potential

     negative rho (up, down):  3.960E-05 0.000E+00

     total cpu time spent up to now is       55.2 secs

     per-process dynamical memory:   215.4 Mb

     Self-consistent Calculation

     iteration #  1     ecut=    55.00 Ry     beta= 0.30
     Davidson diagonalization with overlap
     ethr =  1.00E-06,  avg # of iterations =  3.1

     Threshold (ethr) on eigenvalues was too large:
     Diagonalizing with lowered threshold

     Davidson diagonalization with overlap
     ethr =  1.36E-08,  avg # of iterations =  5.0

     negative rho (up, down):  3.950E-05 0.000E+00

     total cpu time spent up to now is       62.1 secs

     total energy              =   -1011.36221119 Ry
     estimated scf accuracy    <       0.00002236 Ry

     iteration #  2     ecut=    55.00 Ry     beta= 0.30
     Davidson diagonalization with overlap
     ethr =  1.69E-08,  avg # of iterations =  2.0

     negative rho (up, down):  3.947E-05 0.000E+00

     total cpu time spent up to now is       64.2 secs

     total energy              =   -1011.36221267 Ry
     estimated scf accuracy    <       0.00004412 Ry

     iteration #  3     ecut=    55.00 Ry     beta= 0.30
     Davidson diagonalization with overlap
     ethr =  1.69E-08,  avg # of iterations =  1.6

     negative rho (up, down):  3.945E-05 0.000E+00

     total cpu time spent up to now is       66.0 secs

     total energy              =   -1011.36221696 Ry
     estimated scf accuracy    <       0.00000355 Ry

     iteration #  4     ecut=    55.00 Ry     beta= 0.30
     Davidson diagonalization with overlap
     ethr =  2.69E-09,  avg # of iterations =  2.0

     negative rho (up, down):  3.943E-05 0.000E+00

     total cpu time spent up to now is       67.9 secs

     total energy              =   -1011.36221687 Ry
     estimated scf accuracy    <       0.00001824 Ry

     iteration #  5     ecut=    55.00 Ry     beta= 0.30
     Davidson diagonalization with overlap
     ethr =  2.69E-09,  avg # of iterations =  1.0

     negative rho (up, down):  3.938E-05 0.000E+00

     total cpu time spent up to now is       69.5 secs

     End of self-consistent calculation

          k = 0.0000 0.0000 0.0000 ( 30377 PWs)   bands (ev):

    -6.0241  -4.9225  -4.8271  -4.6829  -4.6512  -4.5440  -4.4368  -4.3561
    -4.3049  -4.2707  -4.1962  -4.0809  -3.9729  -3.9430  -3.7066  -3.6652
    -3.6626  -3.6262  -3.6143  -3.5567  -3.5441  -3.5139  -3.5102  -3.3499
    -3.2889  -3.2585  -3.2442  -3.2056  -3.2036  -3.1899  -3.1647  -3.1195
    -3.0668  -2.9963  -2.9751  -2.9451  -2.9201  -2.8129  -2.8125  -2.8114
    -2.7982  -2.6597  -2.5554  -2.4759  -2.3127  -2.2144  -2.2019  -2.1653
    -2.1591  -2.1565  -2.1557  -2.1262  -1.9758  -1.9259  -1.8386  -1.8363
    -1.8061  -1.7934  -1.7774  -1.7695  -1.6196  -1.5907  -1.1316   0.6338
     1.7229   1.7994   2.5737   2.9125   3.3738   3.5829   3.7252   4.5952
     4.8721   5.0233   5.2051   5.2194   5.7948   5.8881   5.8969

          k = 0.0000 0.1165 0.0000 ( 30371 PWs)   bands (ev):

    -5.9258  -4.8845  -4.7890  -4.6555  -4.6139  -4.5347  -4.4847  -4.4259
    -4.3630  -4.3083  -4.3036  -3.9934  -3.9541  -3.8948  -3.8005  -3.7639
    -3.6516  -3.6239  -3.6126  -3.5720  -3.5099  -3.4603  -3.4031  -3.2723
    -3.2565  -3.2494  -3.2117  -3.2116  -3.1915  -3.1670  -3.1380  -3.1269
    -3.0378  -3.0312  -2.9686  -2.9672  -2.9333  -2.8604  -2.8331  -2.8077
    -2.6960  -2.6834  -2.5637  -2.4285  -2.3186  -2.2778  -2.2257  -2.1850
    -2.1770  -2.1553  -2.1343  -2.1179  -1.9389  -1.9169  -1.8839  -1.8746
    -1.8160  -1.7935  -1.7882  -1.7407  -1.6208  -1.6042  -1.0987   0.5657
     0.8756   1.9283   1.9742   2.7992   3.6086   3.7499   4.1870   4.7541
     5.0124   5.1547   5.3213   5.6457   5.6538   5.9338   5.9902

          k = 0.0000 0.2330 0.0000 ( 30367 PWs)   bands (ev):

    -5.6422  -4.7949  -4.7152  -4.6405  -4.5763  -4.5373  -4.5256  -4.5139
    -4.4309  -4.3943  -4.2940  -3.9939  -3.9650  -3.9221  -3.8815  -3.8111
    -3.7070  -3.6059  -3.5685  -3.5116  -3.4950  -3.4196  -3.3402  -3.3373
    -3.2556  -3.2080  -3.1938  -3.1716  -3.1706  -3.1593  -3.1032  -3.0667
    -3.0333  -2.9966  -2.9688  -2.9418  -2.9085  -2.8914  -2.8145  -2.7532
    -2.7165  -2.5745  -2.5447  -2.3720  -2.3332  -2.3318  -2.3052  -2.2121
    -2.2083  -2.1287  -2.1103  -2.1019  -1.9680  -1.9460  -1.9320  -1.8844
    -1.7944  -1.7713  -1.7670  -1.7503  -1.6238  -1.6052  -0.9577  -0.5444
     0.6798   1.0105   2.3270   2.6340   2.9099   4.2267   4.5973   5.0227
     5.1818   5.6078   5.7844   5.9549   6.1130   6.2819   6.2857

          k = 0.0000 0.3495 0.0000 ( 30339 PWs)   bands (ev):

    -5.2169  -4.7910  -4.7656  -4.6397  -4.5016  -4.4979  -4.4947  -4.4842
    -4.4758  -4.4667  -4.1796  -4.1200  -4.0511  -3.9604  -3.8643  -3.8031
    -3.7332  -3.5964  -3.5646  -3.5121  -3.5109  -3.4905  -3.3502  -3.3174
    -3.3010  -3.2802  -3.2601  -3.1986  -3.1883  -3.1730  -3.1110  -3.0860
    -3.0553  -3.0379  -2.9301  -2.9108  -2.7913  -2.7673  -2.7031  -2.6436
    -2.5895  -2.5667  -2.5044  -2.3891  -2.3359  -2.3296  -2.2496  -2.2386
    -2.2296  -2.2054  -2.0841  -2.0282  -1.9557  -1.9300  -1.9292  -1.8599
    -1.7974  -1.7684  -1.7475  -1.7238  -1.6196  -1.5977  -1.4455  -0.6679
    -0.2845   1.1704   1.4730   2.7509   3.5527   4.1953   4.9524   5.3295
     5.3527   5.5407   5.8356   6.0515   6.0770   6.1603   6.6561

          k = 0.0000-0.4660 0.0000 ( 30242 PWs)   bands (ev):

    -4.8158  -4.8124  -4.7649  -4.7649  -4.5612  -4.5559  -4.4816  -4.4781
    -4.4176  -4.4157  -4.1826  -4.1809  -4.0131  -4.0109  -3.8120  -3.8063
    -3.6917  -3.6882  -3.5766  -3.5727  -3.5240  -3.5226  -3.3324  -3.3317
    -3.3304  -3.3287  -3.2450  -3.2443  -3.2120  -3.2091  -3.0796  -3.0763
    -3.0667  -3.0666  -2.8495  -2.8454  -2.8253  -2.8249  -2.5989  -2.5969
    -2.4945  -2.4896  -2.4620  -2.4615  -2.3295  -2.3294  -2.2438  -2.2403
    -2.1833  -2.1816  -2.0597  -2.0591  -1.9927  -1.9914  -1.8910  -1.8885
    -1.7875  -1.7841  -1.7290  -1.7269  -1.6040  -1.6037  -1.2962  -1.2960
     0.2185   0.2205   2.1018   2.1060   4.6068   4.6070   4.6306   4.6323
     5.6613   5.6616   5.8871   5.8888   6.1522   6.1534   6.4854

          k = 0.1250-0.0000 0.0000 ( 30357 PWs)   bands (ev):

    -5.9057  -4.8524  -4.7931  -4.7655  -4.6419  -4.5036  -4.3905  -4.3201
    -4.2700  -4.2467  -4.1361  -4.0621  -3.9612  -3.8465  -3.7718  -3.7178
    -3.7127  -3.7125  -3.6351  -3.6247  -3.5392  -3.5283  -3.4594  -3.4031
    -3.3048  -3.2998  -3.2971  -3.2823  -3.2757  -3.1667  -3.0435  -3.0249
    -2.9863  -2.9743  -2.9511  -2.9394  -2.9068  -2.8538  -2.8340  -2.7965
    -2.7535  -2.6169  -2.4728  -2.4661  -2.3559  -2.2170  -2.2047  -2.1889
    -2.1684  -2.1332  -2.1301  -1.9998  -1.9262  -1.9195  -1.8956  -1.8864
    -1.8610  -1.8158  -1.7728  -1.7645  -1.6790  -1.6753  -1.0626   0.7374
     0.9019   1.8532   2.5002   2.6855   2.9288   3.5126   3.7410   4.5028
     4.7222   5.1243   5.3275   5.3590   6.0030   6.0067   6.0640

          k = 0.1250 0.1165 0.0000 ( 30355 PWs)   bands (ev):

    -5.8102  -4.8349  -4.7536  -4.7343  -4.6188  -4.5400  -4.4436  -4.3775
    -4.3548  -4.2690  -4.1583  -3.9785  -3.9507  -3.8351  -3.7996  -3.7823
    -3.7375  -3.6720  -3.6474  -3.6014  -3.4972  -3.4764  -3.4270  -3.4264
    -3.4028  -3.3148  -3.2469  -3.2354  -3.1435  -3.1312  -3.1221  -3.0236
    -3.0141  -2.9697  -2.9367  -2.9169  -2.8604  -2.8335  -2.8093  -2.7936
    -2.6779  -2.6566  -2.4806  -2.4209  -2.3492  -2.2694  -2.2321  -2.2161
    -2.1537  -2.1516  -2.1068  -1.9925  -1.9302  -1.9108  -1.9024  -1.8877
    -1.8808  -1.8698  -1.7910  -1.7199  -1.6932  -1.6806  -1.0368   0.6329
     0.9551   1.1261   2.0259   2.6355   2.9204   3.7718   4.1393   4.4796
     4.8593   5.2519   5.4307   5.7171   6.0373   6.1696   6.1758

          k = 0.1250 0.2330 0.0000 ( 30324 PWs)   bands (ev):

    -5.5372  -4.8088  -4.6814  -4.6529  -4.6224  -4.5998  -4.5456  -4.5024
    -4.3665  -4.2511  -4.1346  -3.9772  -3.9703  -3.8917  -3.8634  -3.8580
    -3.7154  -3.6902  -3.5969  -3.5360  -3.5209  -3.4574  -3.3869  -3.3586
    -3.3453  -3.3016  -3.2590  -3.2484  -3.1718  -3.1540  -3.0864  -3.0581
    -2.9860  -2.9679  -2.9499  -2.8492  -2.8305  -2.7898  -2.7364  -2.7226
    -2.5563  -2.5548  -2.4907  -2.3669  -2.3627  -2.3169  -2.3036  -2.1932
    -2.1906  -2.1151  -2.1018  -2.0471  -2.0078  -1.9579  -1.8977  -1.8761
    -1.8577  -1.8378  -1.7540  -1.7402  -1.6841  -1.6822  -0.9135  -0.5110
     0.7653   1.1003   1.6982   2.4060   3.0173   3.0827   4.6679   4.7586
     4.9310   5.1646   5.7067   5.9573   6.1781   6.2966   6.3512

          k = 0.1250 0.3495 0.0000 ( 30314 PWs)   bands (ev):

    -5.1396  -4.8033  -4.7303  -4.7192  -4.7039  -4.5512  -4.4707  -4.4557
    -4.2998  -4.2223  -4.1368  -4.0796  -4.0563  -3.9781  -3.8707  -3.8493
    -3.6898  -3.6491  -3.5559  -3.5464  -3.5337  -3.4825  -3.3969  -3.3743
    -3.3353  -3.3164  -3.2826  -3.2769  -3.2375  -3.2317  -3.0689  -3.0242
    -3.0007  -2.9818  -2.9120  -2.8368  -2.7910  -2.7500  -2.6379  -2.6212
    -2.5551  -2.4223  -2.4110  -2.3727  -2.3359  -2.3138  -2.2383  -2.2191
    -2.1694  -2.1475  -2.0800  -2.0281  -1.9743  -1.9246  -1.9085  -1.8653
    -1.8388  -1.8030  -1.7793  -1.7380  -1.6755  -1.6538  -1.4205  -0.6304
    -0.2113   1.2490   1.5543   2.4382   2.8418   3.6303   4.1907   4.2385
     5.0686   5.3176   5.4477   5.5521   6.1805   6.5294   6.8181

          k = 0.1250-0.4660 0.0000 ( 30312 PWs)   bands (ev):

    -4.7999  -4.7982  -4.7799  -4.7768  -4.6897  -4.6874  -4.3944  -4.3935
    -4.2334  -4.2304  -4.1775  -4.1757  -4.0486  -4.0484  -3.8146  -3.8120
    -3.6570  -3.6544  -3.5925  -3.5907  -3.5380  -3.5355  -3.3822  -3.3807
    -3.3530  -3.3504  -3.3166  -3.3127  -3.2349  -3.2308  -3.0507  -3.0498
    -2.9813  -2.9791  -2.8631  -2.8620  -2.7558  -2.7554  -2.6153  -2.6126
    -2.4673  -2.4664  -2.4119  -2.4076  -2.2477  -2.2451  -2.1989  -2.1981
    -2.1549  -2.1532  -2.0331  -2.0330  -1.9512  -1.9502  -1.8957  -1.8935
    -1.8191  -1.8175  -1.7928  -1.7898  -1.6807  -1.6797  -1.2405  -1.2397
     0.2808   0.2832   2.1728   2.1769   3.2868   3.2880   4.3249   4.3255
     4.7032   4.7047   5.6822   5.6840   6.5147   6.5155   6.8260

          k = 0.1250-0.3495 0.0000 ( 30314 PWs)   bands (ev):

    -5.1396  -4.8033  -4.7303  -4.7192  -4.7039  -4.5512  -4.4707  -4.4557
    -4.2998  -4.2223  -4.1368  -4.0796  -4.0563  -3.9781  -3.8707  -3.8493
    -3.6898  -3.6491  -3.5559  -3.5464  -3.5337  -3.4825  -3.3969  -3.3743
    -3.3353  -3.3164  -3.2826  -3.2769  -3.2375  -3.2317  -3.0689  -3.0242
    -3.0007  -2.9818  -2.9120  -2.8368  -2.7910  -2.7500  -2.6379  -2.6212
    -2.5551  -2.4223  -2.4110  -2.3727  -2.3359  -2.3138  -2.2383  -2.2191
    -2.1694  -2.1475  -2.0800  -2.0281  -1.9743  -1.9246  -1.9085  -1.8653
    -1.8388  -1.8030  -1.7793  -1.7380  -1.6755  -1.6538  -1.4205  -0.6304
    -0.2113   1.2490   1.5543   2.4382   2.8418   3.6303   4.1907   4.2385
     5.0686   5.3176   5.4477   5.5521   6.1805   6.5294   6.8187

          k = 0.1250-0.2330 0.0000 ( 30324 PWs)   bands (ev):

    -5.5372  -4.8088  -4.6814  -4.6529  -4.6224  -4.5998  -4.5456  -4.5024
    -4.3665  -4.2511  -4.1346  -3.9772  -3.9703  -3.8917  -3.8634  -3.8580
    -3.7154  -3.6902  -3.5969  -3.5360  -3.5209  -3.4574  -3.3869  -3.3586
    -3.3453  -3.3016  -3.2590  -3.2484  -3.1718  -3.1540  -3.0864  -3.0581
    -2.9860  -2.9679  -2.9499  -2.8492  -2.8305  -2.7898  -2.7364  -2.7226
    -2.5563  -2.5548  -2.4907  -2.3669  -2.3627  -2.3169  -2.3036  -2.1932
    -2.1906  -2.1151  -2.1018  -2.0471  -2.0078  -1.9579  -1.8977  -1.8761
    -1.8577  -1.8378  -1.7540  -1.7402  -1.6841  -1.6822  -0.9135  -0.5110
     0.7653   1.1003   1.6982   2.4060   3.0173   3.0827   4.6679   4.7586
     4.9310   5.1646   5.7067   5.9573   6.1781   6.2966   6.5022

          k = 0.1250-0.1165 0.0000 ( 30355 PWs)   bands (ev):

    -5.8102  -4.8349  -4.7536  -4.7343  -4.6188  -4.5400  -4.4436  -4.3775
    -4.3548  -4.2690  -4.1583  -3.9785  -3.9507  -3.8351  -3.7996  -3.7823
    -3.7375  -3.6720  -3.6474  -3.6014  -3.4972  -3.4764  -3.4270  -3.4264
    -3.4028  -3.3148  -3.2469  -3.2354  -3.1435  -3.1312  -3.1221  -3.0236
    -3.0141  -2.9697  -2.9367  -2.9169  -2.8604  -2.8335  -2.8093  -2.7936
    -2.6779  -2.6566  -2.4806  -2.4209  -2.3492  -2.2694  -2.2321  -2.2161
    -2.1537  -2.1516  -2.1068  -1.9925  -1.9302  -1.9108  -1.9024  -1.8877
    -1.8808  -1.8698  -1.7910  -1.7199  -1.6932  -1.6806  -1.0368   0.6329
     0.9551   1.1261   2.0259   2.6355   2.9204   3.7718   4.1393   4.4796
     4.8593   5.2519   5.4307   5.7171   6.0373   6.1696   6.1758

          k = 0.2500-0.0000 0.0000 ( 30361 PWs)   bands (ev):

    -5.5679  -4.8658  -4.7026  -4.6760  -4.5343  -4.3970  -4.3615  -4.3166
    -4.2881  -4.1394  -4.0942  -3.9488  -3.9450  -3.9106  -3.7805  -3.7477
    -3.7461  -3.7420  -3.6808  -3.6680  -3.6406  -3.5762  -3.4219  -3.3714
    -3.3489  -3.3381  -3.3308  -3.3159  -3.3153  -3.2353  -3.1049  -3.0358
    -3.0055  -2.9758  -2.9319  -2.8704  -2.8344  -2.7672  -2.7454  -2.7002
    -2.5575  -2.5287  -2.4628  -2.3767  -2.3310  -2.2040  -2.1950  -2.1864
    -2.1648  -2.1623  -2.1523  -2.1391  -2.0601  -2.0131  -1.9412  -1.8711
    -1.8120  -1.8075  -1.7806  -1.7720  -1.7015  -1.6847  -0.8528  -0.4334
     1.0355   1.0588   2.0298   2.8267   2.9243   3.0171   3.8895   4.0726
     4.8339   5.0709   5.4980   5.6505   5.8021   6.3112   6.3332

          k = 0.2500 0.1165 0.0000 ( 30338 PWs)   bands (ev):

    -5.4815  -4.8340  -4.7215  -4.6582  -4.5412  -4.5304  -4.3412  -4.3241
    -4.3019  -4.1514  -4.0662  -4.0543  -3.9627  -3.8965  -3.8335  -3.7416
    -3.7401  -3.7302  -3.6751  -3.6125  -3.5673  -3.5246  -3.4657  -3.4464
    -3.4279  -3.3663  -3.2993  -3.2856  -3.2124  -3.1472  -3.1441  -3.0377
    -3.0178  -2.9417  -2.9070  -2.7964  -2.7784  -2.7206  -2.6742  -2.6462
    -2.5773  -2.5561  -2.4407  -2.3499  -2.3357  -2.2381  -2.2355  -2.1865
    -2.1678  -2.1637  -2.1284  -2.0964  -2.0717  -2.0035  -1.9817  -1.8958
    -1.8463  -1.8278  -1.8054  -1.7662  -1.7031  -1.6638  -0.8327  -0.2082
     0.8542   1.1273   1.2609   2.2920   2.9461   3.3069   3.7244   4.1551
     4.8564   5.1608   5.2141   5.7045   5.8359   6.0866   6.3390

          k = 0.2500 0.2330 0.0000 ( 30302 PWs)   bands (ev):

    -5.2442  -4.8156  -4.7435  -4.7107  -4.5585  -4.5160  -4.4472  -4.4076
    -4.2835  -4.1862  -4.0601  -4.0372  -3.9780  -3.9364  -3.8587  -3.8285
    -3.7329  -3.7232  -3.6658  -3.5818  -3.5509  -3.5329  -3.4849  -3.4295
    -3.3663  -3.3502  -3.2706  -3.2617  -3.2162  -3.1863  -3.0497  -3.0225
    -2.9505  -2.9047  -2.8724  -2.7569  -2.7527  -2.6522  -2.6114  -2.5200
    -2.4981  -2.4214  -2.3992  -2.3328  -2.3221  -2.3194  -2.2749  -2.1584
    -2.1437  -2.1367  -2.1177  -2.0806  -2.0618  -2.0217  -1.9745  -1.9045
    -1.8612  -1.8503  -1.8057  -1.7839  -1.6864  -1.6734  -0.7228  -0.3404
     0.3057   1.0463   1.3540   1.5108   2.7850   3.0889   3.3992   3.4684
     4.8362   4.8618   4.9198   5.3380   6.0271   6.3775   6.6866

          k = 0.2500 0.3495 0.0000 ( 30286 PWs)   bands (ev):

    -4.9566  -4.8821  -4.7921  -4.6471  -4.6190  -4.6189  -4.3972  -4.3359
    -4.2236  -4.1512  -4.1344  -4.0805  -4.0279  -3.9568  -3.9305  -3.8900
    -3.7386  -3.6967  -3.6184  -3.5720  -3.5448  -3.5209  -3.4318  -3.4186
    -3.3918  -3.3337  -3.3009  -3.2621  -3.2264  -3.1911  -3.0463  -2.9979
    -2.9830  -2.9439  -2.8001  -2.7366  -2.6367  -2.5998  -2.5719  -2.4828
    -2.4457  -2.4304  -2.3736  -2.3527  -2.2691  -2.2309  -2.1940  -2.1242
    -2.0855  -2.0769  -2.0448  -2.0437  -2.0236  -1.9760  -1.9740  -1.9325
    -1.8325  -1.8248  -1.8029  -1.7086  -1.6974  -1.6750  -1.2969  -0.4585
     0.0259   0.9735   1.4624   1.7573   2.1419   2.5874   2.9588   3.4628
     4.0539   4.4445   4.8313   5.1784   6.2381   6.4869   6.9452

          k = 0.2500-0.4660 0.0000 ( 30312 PWs)   bands (ev):

    -4.9032  -4.8999  -4.6978  -4.6953  -4.6182  -4.6169  -4.3554  -4.3545
    -4.1466  -4.1433  -4.0934  -4.0905  -4.0566  -4.0562  -3.9625  -3.9597
    -3.6528  -3.6509  -3.5907  -3.5898  -3.5532  -3.5510  -3.4010  -3.3987
    -3.3935  -3.3933  -3.3102  -3.3098  -3.2031  -3.1987  -3.0153  -3.0132
    -2.9766  -2.9757  -2.6970  -2.6956  -2.6731  -2.6696  -2.5138  -2.5132
    -2.4530  -2.4515  -2.3467  -2.3445  -2.2524  -2.2507  -2.0917  -2.0908
    -2.0705  -2.0695  -2.0306  -2.0297  -1.9379  -1.9363  -1.8712  -1.8712
    -1.8483  -1.8479  -1.7866  -1.7857  -1.7492  -1.7468  -1.0921  -1.0914
     0.4965   0.4996   1.7157   1.7172   2.3577   2.3603   2.7936   2.7947
     4.3639   4.3685   4.6974   4.6976   6.7447   6.7489   6.9002

          k = 0.2500-0.3495 0.0000 ( 30286 PWs)   bands (ev):

    -4.9566  -4.8821  -4.7921  -4.6471  -4.6190  -4.6189  -4.3972  -4.3359
    -4.2236  -4.1512  -4.1344  -4.0805  -4.0279  -3.9568  -3.9305  -3.8900
    -3.7386  -3.6967  -3.6184  -3.5720  -3.5448  -3.5209  -3.4318  -3.4186
    -3.3918  -3.3337  -3.3009  -3.2621  -3.2264  -3.1911  -3.0463  -2.9979
    -2.9830  -2.9439  -2.8001  -2.7366  -2.6367  -2.5998  -2.5719  -2.4828
    -2.4457  -2.4304  -2.3736  -2.3527  -2.2691  -2.2309  -2.1940  -2.1242
    -2.0855  -2.0769  -2.0448  -2.0437  -2.0236  -1.9760  -1.9740  -1.9325
    -1.8325  -1.8248  -1.8029  -1.7086  -1.6974  -1.6750  -1.2969  -0.4585
     0.0259   0.9735   1.4624   1.7573   2.1419   2.5874   2.9588   3.4628
     4.0539   4.4445   4.8313   5.1784   6.2381   6.4869   6.9453

          k = 0.2500-0.2330 0.0000 ( 30302 PWs)   bands (ev):

    -5.2442  -4.8156  -4.7435  -4.7107  -4.5585  -4.5160  -4.4472  -4.4076
    -4.2835  -4.1862  -4.0601  -4.0372  -3.9780  -3.9364  -3.8587  -3.8285
    -3.7329  -3.7232  -3.6658  -3.5818  -3.5509  -3.5329  -3.4849  -3.4295
    -3.3663  -3.3502  -3.2706  -3.2617  -3.2162  -3.1863  -3.0497  -3.0225
    -2.9505  -2.9047  -2.8724  -2.7569  -2.7527  -2.6522  -2.6114  -2.5200
    -2.4981  -2.4214  -2.3992  -2.3328  -2.3221  -2.3194  -2.2749  -2.1584
    -2.1437  -2.1367  -2.1177  -2.0806  -2.0618  -2.0217  -1.9745  -1.9045
    -1.8612  -1.8503  -1.8057  -1.7839  -1.6864  -1.6734  -0.7228  -0.3404
     0.3057   1.0463   1.3540   1.5108   2.7850   3.0889   3.3992   3.4684
     4.8362   4.8618   4.9198   5.3380   6.0271   6.3775   6.6867

          k = 0.2500-0.1165 0.0000 ( 30338 PWs)   bands (ev):

    -5.4815  -4.8340  -4.7215  -4.6582  -4.5412  -4.5304  -4.3412  -4.3241
    -4.3019  -4.1514  -4.0662  -4.0543  -3.9627  -3.8965  -3.8335  -3.7416
    -3.7401  -3.7302  -3.6751  -3.6125  -3.5673  -3.5246  -3.4657  -3.4464
    -3.4279  -3.3663  -3.2993  -3.2856  -3.2124  -3.1472  -3.1441  -3.0377
    -3.0178  -2.9417  -2.9070  -2.7964  -2.7784  -2.7206  -2.6742  -2.6462
    -2.5773  -2.5561  -2.4407  -2.3499  -2.3357  -2.2381  -2.2355  -2.1865
    -2.1678  -2.1637  -2.1284  -2.0964  -2.0717  -2.0035  -1.9817  -1.8958
    -1.8463  -1.8278  -1.8054  -1.7662  -1.7031  -1.6638  -0.8327  -0.2082
     0.8542   1.1273   1.2609   2.2920   2.9461   3.3069   3.7244   4.1551
     4.8564   5.1608   5.2141   5.7045   5.8359   6.0866   6.3390

          k = 0.3750-0.0000 0.0000 ( 30267 PWs)   bands (ev):

    -5.0867  -4.8517  -4.6051  -4.5254  -4.4448  -4.3556  -4.3398  -4.3245
    -4.3013  -4.2692  -4.0245  -3.9538  -3.9040  -3.8811  -3.7628  -3.7546
    -3.7531  -3.7475  -3.6910  -3.6338  -3.5818  -3.4769  -3.4346  -3.4081
    -3.3815  -3.3684  -3.3369  -3.3349  -3.3126  -3.2121  -3.1953  -3.0797
    -3.0000  -2.9642  -2.9243  -2.9212  -2.7884  -2.7837  -2.7542  -2.6052
    -2.5519  -2.5473  -2.4579  -2.4098  -2.3725  -2.3082  -2.2400  -2.2243
    -2.1799  -2.0750  -2.0478  -2.0418  -2.0397  -1.9664  -1.9211  -1.8892
    -1.8087  -1.8063  -1.7521  -1.7443  -1.7064  -1.6458  -1.5135  -0.4008
    -0.2466   1.5029   1.6281   2.3346   2.8682   3.5481   3.5540   4.2829
     4.3885   5.4836   5.5926   5.9085   6.0923   6.1835   6.2842

          k = 0.3750 0.1165 0.0000 ( 30287 PWs)   bands (ev):

    -5.0168  -4.8227  -4.6042  -4.5490  -4.5098  -4.4682  -4.3442  -4.3413
    -4.2682  -4.1642  -4.1421  -4.1051  -3.9061  -3.8772  -3.8607  -3.7556
    -3.7167  -3.7058  -3.6907  -3.6140  -3.5710  -3.5045  -3.4657  -3.4073
    -3.3723  -3.3707  -3.3419  -3.2778  -3.1997  -3.1869  -3.1132  -3.0401
    -3.0352  -2.8976  -2.8890  -2.8345  -2.8279  -2.6800  -2.6710  -2.6140
    -2.5358  -2.4888  -2.4208  -2.3977  -2.3808  -2.3583  -2.2410  -2.2332
    -2.1952  -2.1189  -2.0659  -2.0618  -1.9990  -1.9846  -1.9397  -1.8795
    -1.8365  -1.8002  -1.7501  -1.7451  -1.6726  -1.6572  -1.2948  -0.3656
    -0.1476   1.3179   1.5549   1.7442   2.8473   2.9164   3.5539   3.7826
     4.5871   4.7554   5.3969   5.5795   6.1342   6.2658   6.5788

          k = 0.3750 0.2330 0.0000 ( 30255 PWs)   bands (ev):

    -4.8598  -4.7597  -4.7379  -4.6688  -4.4865  -4.4451  -4.3974  -4.3464
    -4.2831  -4.2596  -4.2145  -4.1162  -3.9301  -3.9267  -3.8798  -3.8044
    -3.7973  -3.7262  -3.6689  -3.6482  -3.6391  -3.5328  -3.4338  -3.4095
    -3.3509  -3.3482  -3.2793  -3.1708  -3.1123  -3.0699  -3.0339  -2.9836
    -2.9704  -2.8854  -2.8667  -2.7181  -2.6909  -2.6876  -2.5485  -2.5184
    -2.4521  -2.4431  -2.4029  -2.3584  -2.3526  -2.3119  -2.2478  -2.2006
    -2.1772  -2.1356  -2.0548  -2.0474  -1.9882  -1.9695  -1.9369  -1.8580
    -1.8534  -1.7923  -1.7589  -1.7050  -1.6779  -1.6400  -0.8532  -0.2247
     0.0750   0.2077   1.4678   1.8519   1.8713   2.1084   3.1186   3.2739
     3.9723   4.1180   4.9316   5.0756   6.2984   6.5228   6.9401

          k = 0.3750 0.3495 0.0000 ( 30296 PWs)   bands (ev):

    -4.8636  -4.8566  -4.6486  -4.6258  -4.5919  -4.5094  -4.3956  -4.3119
    -4.2437  -4.2348  -4.1599  -4.1524  -3.9728  -3.9631  -3.9334  -3.8053
    -3.7899  -3.7871  -3.7216  -3.6706  -3.6303  -3.6070  -3.4379  -3.4062
    -3.2932  -3.2460  -3.2162  -3.1687  -3.1550  -3.0265  -2.9843  -2.9677
    -2.9168  -2.9071  -2.7372  -2.7349  -2.6570  -2.5996  -2.5409  -2.4745
    -2.4567  -2.4259  -2.3396  -2.3266  -2.2979  -2.2558  -2.1684  -2.1527
    -2.1058  -2.0674  -2.0113  -1.9789  -1.9403  -1.8971  -1.8520  -1.8328
    -1.8273  -1.8243  -1.7721  -1.6864  -1.6589  -1.3721  -0.8546  -0.3091
     0.0209   0.5147   0.6198   1.1719   1.9056   2.0474   2.2686   2.3227
     3.8809   3.8989   4.3909   4.5213   6.6533   6.7025   7.0779

          k = 0.3750-0.4660 0.0000 ( 30298 PWs)   bands (ev):

    -4.8974  -4.8937  -4.6550  -4.6519  -4.5052  -4.5019  -4.3756  -4.3732
    -4.2699  -4.2667  -4.0774  -4.0758  -3.9659  -3.9654  -3.9420  -3.9385
    -3.7917  -3.7882  -3.6699  -3.6681  -3.5935  -3.5912  -3.4712  -3.4683
    -3.2863  -3.2839  -3.1428  -3.1418  -3.0604  -3.0577  -2.9937  -2.9901
    -2.8887  -2.8886  -2.7642  -2.7623  -2.6018  -2.6002  -2.5399  -2.5387
    -2.4199  -2.4179  -2.3177  -2.3149  -2.2625  -2.2611  -2.1558  -2.1552
    -2.0529  -2.0528  -1.9491  -1.9484  -1.8521  -1.8515  -1.8287  -1.8277
    -1.8204  -1.8190  -1.6807  -1.6798  -1.5169  -1.5164  -0.6772  -0.6769
     0.3535   0.3540   0.9074   0.9112   1.4089   1.4091   2.3766   2.3773
     3.5842   3.5853   4.4294   4.4309   6.6606   6.6608   7.2663

          k = 0.3750-0.3495 0.0000 ( 30296 PWs)   bands (ev):

    -4.8636  -4.8566  -4.6486  -4.6258  -4.5919  -4.5094  -4.3956  -4.3119
    -4.2437  -4.2348  -4.1599  -4.1524  -3.9728  -3.9631  -3.9334  -3.8053
    -3.7899  -3.7871  -3.7216  -3.6706  -3.6303  -3.6070  -3.4379  -3.4062
    -3.2932  -3.2460  -3.2162  -3.1687  -3.1550  -3.0265  -2.9843  -2.9677
    -2.9168  -2.9071  -2.7372  -2.7349  -2.6570  -2.5996  -2.5409  -2.4745
    -2.4567  -2.4259  -2.3396  -2.3266  -2.2979  -2.2558  -2.1684  -2.1527
    -2.1058  -2.0674  -2.0113  -1.9789  -1.9403  -1.8971  -1.8520  -1.8328
    -1.8273  -1.8243  -1.7721  -1.6864  -1.6589  -1.3721  -0.8546  -0.3091
     0.0209   0.5147   0.6198   1.1719   1.9056   2.0474   2.2686   2.3227
     3.8809   3.8989   4.3909   4.5213   6.6533   6.7025   7.0779

          k = 0.3750-0.2330 0.0000 ( 30255 PWs)   bands (ev):

    -4.8598  -4.7597  -4.7379  -4.6688  -4.4865  -4.4451  -4.3974  -4.3464
    -4.2831  -4.2596  -4.2145  -4.1162  -3.9301  -3.9267  -3.8798  -3.8044
    -3.7973  -3.7262  -3.6689  -3.6482  -3.6391  -3.5328  -3.4338  -3.4095
    -3.3509  -3.3482  -3.2793  -3.1708  -3.1123  -3.0699  -3.0339  -2.9836
    -2.9704  -2.8854  -2.8667  -2.7181  -2.6909  -2.6876  -2.5485  -2.5184
    -2.4521  -2.4431  -2.4029  -2.3584  -2.3526  -2.3119  -2.2478  -2.2006
    -2.1772  -2.1356  -2.0548  -2.0474  -1.9882  -1.9695  -1.9369  -1.8580
    -1.8534  -1.7923  -1.7589  -1.7050  -1.6779  -1.6400  -0.8532  -0.2247
     0.0750   0.2077   1.4678   1.8519   1.8713   2.1084   3.1186   3.2739
     3.9723   4.1180   4.9316   5.0756   6.2984   6.5228   6.9405

          k = 0.3750-0.1165 0.0000 ( 30287 PWs)   bands (ev):

    -5.0168  -4.8227  -4.6042  -4.5490  -4.5098  -4.4682  -4.3442  -4.3413
    -4.2682  -4.1642  -4.1421  -4.1051  -3.9061  -3.8772  -3.8607  -3.7556
    -3.7167  -3.7058  -3.6907  -3.6141  -3.5710  -3.5045  -3.4657  -3.4073
    -3.3723  -3.3707  -3.3419  -3.2778  -3.1997  -3.1869  -3.1132  -3.0401
    -3.0352  -2.8976  -2.8890  -2.8345  -2.8279  -2.6800  -2.6710  -2.6140
    -2.5358  -2.4888  -2.4208  -2.3977  -2.3808  -2.3583  -2.2410  -2.2332
    -2.1952  -2.1189  -2.0659  -2.0618  -1.9990  -1.9846  -1.9397  -1.8795
    -1.8365  -1.8002  -1.7501  -1.7451  -1.6726  -1.6572  -1.2948  -0.3656
    -0.1476   1.3179   1.5549   1.7442   2.8473   2.9164   3.5539   3.7826
     4.5871   4.7554   5.3969   5.5795   6.1342   6.2659   6.5788

          k =-0.5000 0.0000 0.0000 ( 30196 PWs)   bands (ev):

    -4.7144  -4.7144  -4.6811  -4.6811  -4.3694  -4.3694  -4.3521  -4.3521
    -4.1581  -4.1581  -4.1354  -4.1354  -3.8036  -3.8036  -3.7557  -3.7557
    -3.7424  -3.7424  -3.6242  -3.6242  -3.5886  -3.5886  -3.4028  -3.4028
    -3.3950  -3.3950  -3.2998  -3.2998  -3.1755  -3.1754  -3.1294  -3.1294
    -3.0153  -3.0153  -2.8848  -2.8848  -2.8241  -2.8241  -2.7593  -2.7593
    -2.7226  -2.7226  -2.5264  -2.5264  -2.2632  -2.2632  -2.1993  -2.1993
    -2.0824  -2.0824  -2.0432  -2.0432  -1.9810  -1.9810  -1.8350  -1.8350
    -1.7863  -1.7863  -1.7784  -1.7784  -1.7339  -1.7339  -1.2427  -1.2427
     0.3979   0.3979   2.4622   2.4622   2.6689   2.6689   4.1793   4.1793
     4.8096   4.8096   5.8656   5.8656   6.1461   6.1462   6.6233

          k =-0.5000 0.1165 0.0000 ( 30222 PWs)   bands (ev):

    -4.6936  -4.6936  -4.6249  -4.6249  -4.4508  -4.4508  -4.4239  -4.4239
    -4.1649  -4.1649  -4.1241  -4.1241  -3.9472  -3.9472  -3.7885  -3.7885
    -3.6920  -3.6920  -3.6675  -3.6675  -3.5459  -3.5459  -3.4063  -3.4063
    -3.3247  -3.3247  -3.2483  -3.2483  -3.1676  -3.1676  -3.1186  -3.1186
    -2.8887  -2.8887  -2.8847  -2.8847  -2.7976  -2.7976  -2.7297  -2.7297
    -2.6951  -2.6951  -2.4539  -2.4539  -2.2751  -2.2751  -2.2669  -2.2669
    -2.0662  -2.0662  -2.0407  -2.0407  -1.9160  -1.9160  -1.8373  -1.8373
    -1.7970  -1.7970  -1.7846  -1.7846  -1.7101  -1.7101  -1.1671  -1.1671
     0.4463   0.4463   2.0289   2.0289   2.5249   2.5249   3.5283   3.5283
     4.6741   4.6741   5.4187   5.4187   6.6301   6.6304   6.7543

          k =-0.5000 0.2330 0.0000 ( 30230 PWs)   bands (ev):

    -4.6577  -4.6577  -4.6210  -4.6210  -4.5811  -4.5811  -4.4329  -4.4329
    -4.1644  -4.1644  -4.1119  -4.1119  -4.0088  -4.0088  -3.9329  -3.9329
    -3.7651  -3.7651  -3.7018  -3.7018  -3.5169  -3.5169  -3.4434  -3.4434
    -3.2738  -3.2738  -3.1374  -3.1374  -3.1023  -3.1023  -2.9751  -2.9751
    -2.8335  -2.8335  -2.8104  -2.8104  -2.7546  -2.7546  -2.7047  -2.7047
    -2.5343  -2.5343  -2.3432  -2.3432  -2.2778  -2.2778  -2.2664  -2.2664
    -2.0983  -2.0983  -2.0427  -2.0427  -1.8707  -1.8707  -1.8404  -1.8404
    -1.7686  -1.7686  -1.7028  -1.7028  -1.6303  -1.6303  -0.9392  -0.9392
     0.6102   0.6102   0.9703   0.9703   2.3385   2.3385   2.5788   2.5788
     4.2797   4.2797   4.5872   4.5872   6.9118   6.9161   6.9225

          k =-0.5000 0.3495 0.0000 ( 30248 PWs)   bands (ev):

    -4.7416  -4.7416  -4.7308  -4.7308  -4.5256  -4.5256  -4.3822  -4.3822
    -4.1386  -4.1386  -4.1342  -4.1342  -3.9982  -3.9982  -3.9402  -3.9402
    -3.8037  -3.8037  -3.7732  -3.7732  -3.5416  -3.5416  -3.5024  -3.5024
    -3.2551  -3.2551  -3.1202  -3.1202  -2.9695  -2.9695  -2.8827  -2.8827
    -2.7858  -2.7858  -2.7620  -2.7620  -2.7026  -2.7026  -2.6710  -2.6710
    -2.5532  -2.5532  -2.4311  -2.4311  -2.1354  -2.1354  -2.1173  -2.1173
    -2.0506  -2.0506  -1.9747  -1.9747  -1.8853  -1.8853  -1.8590  -1.8590
    -1.7447  -1.7447  -1.7195  -1.7195  -1.2670  -1.2670  -0.5291  -0.5291
     0.0156   0.0156   0.8253   0.8253   1.3553   1.3553   2.3480   2.3480
     3.6796   3.6796   4.3072   4.3072   6.7072   6.7072   7.3496

[...]
    -2.8926  -2.8902  -2.7792  -2.7658  -2.6112  -2.5979  -2.5443  -2.5232
    -2.4371  -2.4137  -2.3373  -2.3121  -2.2681  -2.2593  -2.1541  -2.1502
    -2.0507  -2.0494  -1.9553  -1.9443  -1.8523  -1.8481  -1.8279  -1.8127
    -1.8120  -1.7985  -1.6817  -1.6703  -1.5186  -1.5165  -0.7034  -0.6983
     0.3510   0.3568   0.8934   0.9273   1.3900   1.3962   2.3860   2.3951
     3.6112   3.6195   4.4606   4.4800   6.6894   6.6944   7.2904

          k = 0.3750-0.3495 0.0000 ( 30296 PWs)   bands (ev):

    -4.8884  -4.8441  -4.6595  -4.6229  -4.6135  -4.5259  -4.4194  -4.3263
    -4.2667  -4.2477  -4.1942  -4.1520  -4.0063  -3.9763  -3.9575  -3.8493
    -3.8233  -3.7976  -3.7436  -3.7122  -3.6593  -3.6457  -3.4665  -3.4502
    -3.3276  -3.2669  -3.2329  -3.1826  -3.1762  -3.0470  -3.0119  -2.9740
    -2.9187  -2.9068  -2.7490  -2.7405  -2.6645  -2.5973  -2.5442  -2.4752
    -2.4617  -2.4239  -2.3597  -2.3297  -2.3021  -2.2556  -2.1667  -2.1503
    -2.1144  -2.0647  -2.0001  -1.9744  -1.9463  -1.8915  -1.8493  -1.8304
    -1.8239  -1.8022  -1.7681  -1.6876  -1.6489  -1.3941  -0.8601  -0.3093
     0.0241   0.4933   0.6017   1.1720   1.9223   2.0533   2.2783   2.3077
     3.9137   3.9371   4.4142   4.5656   6.6703   6.7337   7.1076

          k = 0.3750-0.2330 0.0000 ( 30255 PWs)   bands (ev):

    -4.8590  -4.7810  -4.7442  -4.6789  -4.4956  -4.4506  -4.4261  -4.3505
    -4.3197  -4.2668  -4.2205  -4.1462  -3.9661  -3.9490  -3.9061  -3.8212
    -3.8129  -3.7557  -3.7038  -3.6896  -3.6581  -3.5707  -3.4672  -3.4467
    -3.3887  -3.3568  -3.2918  -3.1813  -3.1310  -3.0944  -3.0354  -2.9831
    -2.9812  -2.9067  -2.8743  -2.7462  -2.7033  -2.6881  -2.5614  -2.5187
    -2.4516  -2.4344  -2.4125  -2.3614  -2.3533  -2.3111  -2.2572  -2.2079
    -2.1818  -2.1380  -2.0589  -2.0424  -1.9890  -1.9713  -1.9418  -1.8555
    -1.8419  -1.7816  -1.7556  -1.7186  -1.6758  -1.6279  -0.8543  -0.2100
     0.0603   0.1949   1.4493   1.8505   1.9073   2.1033   3.1263   3.2589
     4.0113   4.1496   4.9722   5.0953   6.3165   6.5300   6.9665

          k = 0.3750-0.1165 0.0000 ( 30287 PWs)   bands (ev):

    -5.0239  -4.8293  -4.6278  -4.5577  -4.5153  -4.4747  -4.3784  -4.3463
    -4.2709  -4.1960  -4.1582  -4.1270  -3.9308  -3.9034  -3.8820  -3.7696
    -3.7522  -3.7407  -3.7142  -3.6394  -3.6039  -3.5260  -3.4883  -3.4334
    -3.4014  -3.3873  -3.3481  -3.2894  -3.2253  -3.1927  -3.1073  -3.0522
    -3.0445  -2.9387  -2.8977  -2.8496  -2.8403  -2.7138  -2.6822  -2.6108
    -2.5375  -2.4892  -2.4233  -2.3986  -2.3794  -2.3638  -2.2594  -2.2409
    -2.2033  -2.1255  -2.0656  -2.0555  -2.0086  -1.9959  -1.9392  -1.8776
    -1.8315  -1.8101  -1.7518  -1.7235  -1.6700  -1.6419  -1.2978  -0.3480
    -0.1722   1.3141   1.5641   1.7719   2.8255   2.9098   3.5922   3.8064
     4.5725   4.7670   5.4339   5.6167   6.1333   6.2700   6.5892

          k =-0.5000 0.0000 0.0000 ( 30196 PWs)   bands (ev):

    -4.7274  -4.7274  -4.6840  -4.6840  -4.4072  -4.4072  -4.3420  -4.3420
    -4.1942  -4.1942  -4.1420  -4.1420  -3.8339  -3.8339  -3.7811  -3.7811
    -3.7766  -3.7766  -3.6426  -3.6426  -3.5916  -3.5916  -3.4443  -3.4443
    -3.4053  -3.4053  -3.3139  -3.3139  -3.1904  -3.1904  -3.1481  -3.1481
    -3.0417  -3.0417  -2.8899  -2.8899  -2.8323  -2.8323  -2.7666  -2.7666
    -2.7187  -2.7187  -2.5426  -2.5426  -2.2776  -2.2776  -2.2033  -2.2032
    -2.0902  -2.0902  -2.0523  -2.0523  -1.9876  -1.9876  -1.8304  -1.8304
    -1.7869  -1.7869  -1.7532  -1.7532  -1.7218  -1.7218  -1.2673  -1.2673
     0.4108   0.4108   2.4945   2.4945   2.6640   2.6640   4.1675   4.1675
     4.8258   4.8258   5.8663   5.8663   6.1760   6.1760   6.6306

          k =-0.5000 0.1165 0.0000 ( 30222 PWs)   bands (ev):

    -4.7021  -4.7021  -4.6281  -4.6281  -4.4881  -4.4881  -4.4183  -4.4183
    -4.1992  -4.1992  -4.1305  -4.1305  -3.9681  -3.9681  -3.8105  -3.8105
    -3.7317  -3.7317  -3.6894  -3.6894  -3.5752  -3.5752  -3.4368  -3.4368
    -3.3468  -3.3468  -3.2576  -3.2576  -3.1864  -3.1864  -3.1325  -3.1325
    -2.9133  -2.9133  -2.8764  -2.8764  -2.8061  -2.8061  -2.7350  -2.7350
    -2.7028  -2.7028  -2.4574  -2.4574  -2.2925  -2.2925  -2.2684  -2.2684
    -2.0759  -2.0759  -2.0497  -2.0497  -1.9179  -1.9179  -1.8320  -1.8320
    -1.7980  -1.7980  -1.7629  -1.7629  -1.6980  -1.6980  -1.1900  -1.1900
     0.4586   0.4586   2.0236   2.0236   2.5588   2.5588   3.5030   3.5030
     4.7096   4.7096   5.4342   5.4342   6.6380   6.6380   6.7708

          k =-0.5000 0.2330 0.0000 ( 30230 PWs)   bands (ev):

    -4.6570  -4.6570  -4.6352  -4.6352  -4.5909  -4.5909  -4.4557  -4.4557
    -4.1966  -4.1966  -4.1191  -4.1191  -4.0171  -4.0171  -3.9505  -3.9505
    -3.8189  -3.8189  -3.7258  -3.7258  -3.5622  -3.5622  -3.4702  -3.4702
    -3.3092  -3.3092  -3.1536  -3.1536  -3.1030  -3.1030  -2.9954  -2.9954
    -2.8512  -2.8512  -2.8153  -2.8153  -2.7598  -2.7598  -2.6992  -2.6992
    -2.5353  -2.5353  -2.3494  -2.3494  -2.2876  -2.2876  -2.2605  -2.2605
    -2.1049  -2.1049  -2.0510  -2.0510  -1.8655  -1.8655  -1.8316  -1.8316
    -1.7607  -1.7607  -1.6964  -1.6964  -1.6271  -1.6271  -0.9601  -0.9601
     0.6205   0.6205   0.9665   0.9665   2.3109   2.3109   2.6102   2.6102
     4.2916   4.2916   4.6303   4.6303   6.9223   6.9236   6.9623

          k =-0.5000 0.3495 0.0000 ( 30248 PWs)   bands (ev):

    -4.7653  -4.7653  -4.7179  -4.7179  -4.5401  -4.5401  -4.4070  -4.4070
    -4.1751  -4.1751  -4.1277  -4.1277  -4.0220  -4.0220  -3.9560  -3.9560
    -3.8605  -3.8605  -3.7844  -3.7844  -3.5987  -3.5987  -3.5231  -3.5230
    -3.2988  -3.2988  -3.1326  -3.1326  -2.9763  -2.9763  -2.8975  -2.8975
    -2.8014  -2.8014  -2.7791  -2.7791  -2.7084  -2.7084  -2.6637  -2.6637
    -2.5484  -2.5484  -2.4375  -2.4375  -2.1312  -2.1312  -2.1156  -2.1156
    -2.0463  -2.0463  -1.9794  -1.9794  -1.8848  -1.8848  -1.8460  -1.8460
    -1.7390  -1.7390  -1.7117  -1.7117  -1.2671  -1.2671  -0.5502  -0.5502
     0.0128   0.0128   0.8262   0.8262   1.3354   1.3354   2.3623   2.3623
     3.7078   3.7078   4.3506   4.3506   6.7392   6.7392   7.3742

          k =-0.5000-0.4660 0.0000 ( 30304 PWs)   bands (ev):

    -4.8077  -4.8077  -4.7611  -4.7611  -4.4717  -4.4717  -4.4269  -4.4269
    -4.2007  -4.2007  -4.1555  -4.1555  -3.9909  -3.9909  -3.9484  -3.9484
    -3.8160  -3.8160  -3.7606  -3.7606  -3.6456  -3.6456  -3.5855  -3.5855
    -3.2269  -3.2269  -3.1667  -3.1667  -2.9209  -2.9209  -2.9097  -2.9097
    -2.7753  -2.7753  -2.7435  -2.7435  -2.6878  -2.6878  -2.6820  -2.6820
    -2.5284  -2.5283  -2.5254  -2.5254  -2.0810  -2.0810  -2.0743  -2.0743
    -1.9979  -1.9979  -1.9698  -1.9698  -1.8150  -1.8150  -1.8043  -1.8043
    -1.7545  -1.7544  -1.7427  -1.7427  -0.7604  -0.7604  -0.7435  -0.7435
     0.1368   0.1368   0.1526   0.1526   1.6665   1.6665   1.7017   1.7017
     3.8841   3.8841   3.9551   3.9551   7.0171   7.0319   7.0520

     the Fermi energy is     1.1794 ev

!    total energy              =   -1011.36366548 Ry
     estimated scf accuracy    <          7.7E-09 Ry
     smearing contrib. (-TS)   =      -0.00100900 Ry
     internal energy E=F+TS    =   -1011.36265648 Ry

     The total energy is F=E-TS. E is the sum of the following terms:
     one-electron contribution =  -10440.69898995 Ry
     hartree contribution      =    5311.93966184 Ry
     xc contribution           =    -267.80143440 Ry
     ewald contribution        =    4385.50174579 Ry
     DFT-D3 Dispersion         =      -0.30363976 Ry

     convergence has been achieved in   6 iterations

     negative rho (up, down):  4.123E-05 0.000E+00

     Forces acting on atoms (cartesian axes, Ry/au):

     atom    1 type  1   force =    -0.00000004   -0.00073388   -0.00033863
     atom    2 type  1   force =    -0.00000001    0.00066856   -0.00045401
     atom    3 type  1   force =    -0.00000012   -0.00055255   -0.00089718
     atom    4 type  1   force =    -0.00000014    0.00039753   -0.00097521
     atom    5 type  1   force =     0.00000010    0.00332478   -0.00442946
     atom    6 type  1   force =     0.00000002   -0.00400515   -0.00382454
     atom    7 type  1   force =     0.00000005    0.00342000    0.00251764
     atom    8 type  1   force =     0.00000009   -0.00296128    0.00304507
     atom    9 type  1   force =     0.00000001   -0.00105059   -0.00669572
     atom   10 type  1   force =     0.00000003   -0.00006061   -0.00677689
     atom   11 type  1   force =    -0.00000003    0.00209243    0.00930572
     atom   12 type  1   force =     0.00000003   -0.00053925    0.00952321
     The non-local contrib.  to forces
     atom    1 type  1   force =    -0.00000003    0.03025986    0.13675433
     atom    2 type  1   force =    -0.00000008   -0.00744468    0.13986525
     atom    3 type  1   force =    -0.00000005    0.01811537   -0.00901497
     atom    4 type  1   force =    -0.00000018   -0.01934802   -0.00592449
     atom    5 type  1   force =     0.00000016   -0.00015576    0.01583106
     atom    6 type  1   force =    -0.00000007    0.00274805    0.01559233
     atom    7 type  1   force =     0.00000001   -0.00055682   -0.01303594
     atom    8 type  1   force =     0.00000008   -0.00158644   -0.01294966
     atom    9 type  1   force =    -0.00000001    0.01828579   -0.00571163
     atom   10 type  1   force =    -0.00000000   -0.01897437   -0.00263784
     atom   11 type  1   force =    -0.00000005    0.01520798   -0.13776518
     atom   12 type  1   force =     0.00000002   -0.03757396   -0.13341134
     The ionic contribution  to forces
     atom    1 type  1   force =     0.00001342   11.25173533  114.52824913
     atom    2 type  1   force =    -0.00000611    7.66494297  114.82418142
     atom    3 type  1   force =     0.00000130    5.60337956   74.51931862
     atom    4 type  1   force =    -0.00000830    6.68177511   74.43048433
     atom    5 type  1   force =     0.00000062    2.08482402   23.58857243
     atom    6 type  1   force =    -0.00000123    1.80817687   23.61141423
     atom    7 type  1   force =     0.00000022   -1.92719845  -24.16241370
     atom    8 type  1   force =     0.00000009   -2.05767977  -24.15163471
     atom    9 type  1   force =     0.00000001   -6.59189283  -73.77551301
     atom   10 type  1   force =    -0.00000002   -5.58476137  -73.85857955
     atom   11 type  1   force =     0.00000000   -7.44262483 -114.94397861
     atom   12 type  1   force =    -0.00000000  -11.49067660 -114.61010057
     The local contribution  to forces
     atom    1 type  1   force =    -0.00001329  -11.28229155 -114.65375437
     atom    2 type  1   force =     0.00000598   -7.65536232 -114.95299797
     atom    3 type  1   force =    -0.00000112   -5.62159909  -74.50522618
     atom    4 type  1   force =     0.00000811   -6.66149306  -74.41956764
     atom    5 type  1   force =    -0.00000059   -2.08111053  -23.60678990
     atom    6 type  1   force =     0.00000112   -1.81482504  -23.62877746
     atom    7 type  1   force =    -0.00000028    1.93108298   24.17569992
     atom    8 type  1   force =    -0.00000005    2.05602440   24.16537776
     atom    9 type  1   force =    -0.00000003    6.57182546   73.76689538
     atom   10 type  1   force =     0.00000002    5.60314560   73.84679037
     atom   11 type  1   force =    -0.00000002    7.42858509  115.08139071
     atom   12 type  1   force =    -0.00000001   11.52704052  114.74335536
     The core correction contribution to forces
     atom    1 type  1   force =    -0.00000002   -0.00164724   -0.00697613
     atom    2 type  1   force =     0.00000000    0.00048200   -0.00715168
     atom    3 type  1   force =     0.00000001   -0.00013901   -0.00141413
     atom    4 type  1   force =     0.00000001   -0.00009455   -0.00141775
     atom    5 type  1   force =     0.00000000   -0.00000417    0.00038673
     atom    6 type  1   force =     0.00000000    0.00006746    0.00038075
     atom    7 type  1   force =    -0.00000000   -0.00002397   -0.00020687
     atom    8 type  1   force =     0.00000000   -0.00001026   -0.00020803
     atom    9 type  1   force =     0.00000000    0.00018622    0.00253064
     atom   10 type  1   force =    -0.00000000    0.00023093    0.00252695
     atom   11 type  1   force =     0.00000000   -0.00093484    0.00589400
     atom   12 type  1   force =    -0.00000000    0.00188789    0.00566118
     The Hubbard contrib.    to forces
     atom    1 type  1   force =     0.00000000    0.00000000    0.00000000
     atom    2 type  1   force =     0.00000000    0.00000000    0.00000000
     atom    3 type  1   force =     0.00000000    0.00000000    0.00000000
     atom    4 type  1   force =     0.00000000    0.00000000    0.00000000
     atom    5 type  1   force =     0.00000000    0.00000000    0.00000000
     atom    6 type  1   force =     0.00000000    0.00000000    0.00000000
     atom    7 type  1   force =     0.00000000    0.00000000    0.00000000
     atom    8 type  1   force =     0.00000000    0.00000000    0.00000000
     atom    9 type  1   force =     0.00000000    0.00000000    0.00000000
     atom   10 type  1   force =     0.00000000    0.00000000    0.00000000
     atom   11 type  1   force =     0.00000000    0.00000000    0.00000000
     atom   12 type  1   force =     0.00000000    0.00000000    0.00000000
     The SCF correction term to forces
     atom    1 type  1   force =    -0.00000014   -0.00004651    0.00000937
     atom    2 type  1   force =     0.00000017    0.00004699    0.00000161
     atom    3 type  1   force =    -0.00000029    0.00003238   -0.00001569
     atom    4 type  1   force =     0.00000019   -0.00003445   -0.00001029
     atom    5 type  1   force =    -0.00000000    0.00000000    0.00000000
     atom    6 type  1   force =     0.00000000   -0.00000000    0.00000000
     atom    7 type  1   force =     0.00000000   -0.00000000    0.00000000
     atom    8 type  1   force =    -0.00000000    0.00000000   -0.00000000
     atom    9 type  1   force =     0.00000000   -0.00000000   -0.00000000
     atom   10 type  1   force =     0.00000000    0.00000000   -0.00000000
     atom   11 type  1   force =     0.00000000   -0.00000000    0.00000000
     atom   12 type  1   force =    -0.00000000    0.00000000    0.00000000

     DFT-D3 dispersion contribution to forces:
     atom    1 type  1   force =    -0.00000001    0.00125620   -0.00462152
     atom    2 type  1   force =     0.00000000   -0.00199644   -0.00435321
     atom    3 type  1   force =     0.00000000   -0.00034179   -0.00454540
     atom    4 type  1   force =     0.00000000   -0.00040753   -0.00453993
     atom    5 type  1   force =     0.00000000   -0.00023162   -0.00244488
     atom    6 type  1   force =     0.00000000   -0.00017210   -0.00244982
     atom    7 type  1   force =     0.00000000    0.00013346    0.00247235
     atom    8 type  1   force =     0.00000000    0.00027342    0.00246079
     atom    9 type  1   force =    -0.00000000    0.00054605    0.00510966
     atom   10 type  1   force =    -0.00000000    0.00029851    0.00513008
     atom   11 type  1   force =    -0.00000000    0.00185951    0.00376405
     atom   12 type  1   force =    -0.00000000   -0.00121767    0.00401785

     Total force =     0.001878     Total SCF correction =     0.000084


     Computing stress (Cartesian axis) and pressure


     negative rho (up, down):  4.123E-05 0.000E+00
          total   stress  (Ry/bohr**3)                   (kbar)     P=      -13.61
  -0.00009218   0.00000000   0.00000000          -13.56        0.00        0.00
   0.00000000  -0.00011867   0.00000431            0.00      -17.46        0.63
   0.00000000   0.00000431  -0.00006679            0.00        0.63       -9.82

     Energy error            =      2.1E-05 Ry
     Gradient error          =      9.8E-04 Ry/Bohr

     bfgs converged in  11 scf cycles and  10 bfgs steps
     (criteria: energy <  1.0E-04 Ry, force <  1.0E-03 Ry/Bohr)

     End of BFGS Geometry Optimization

     Final energy             =   -1011.3636654785 Ry

     File ./Ag_110/Ag_110.bfgs deleted, as requested
Begin final coordinates

ATOMIC_POSITIONS (angstrom)
Ag            1.1754134499        1.1353325894       17.2487192218
Ag            3.5262455095        4.4985842579       16.9713289971
Ag            1.1754151426        3.5394526977       15.6865965667
Ag            3.5262459471        1.8710141397       15.8242111455
Ag            1.1754154525        0.9007931610       14.4032862066    0   0   0
Ag            3.5262463575        4.2637542956       14.1259138471    0   0   0
Ag            1.1754154525        3.3029082571       12.7390520498    0   0   0
Ag            3.5262463575        1.6214276899       12.8777382295    0   0   0
Ag            1.1754154525        0.6605816514       11.4908764322    0   0   0
Ag            3.5262463575        4.0235427860       11.2135040727    0   0   0
Ag            1.1754154525        3.0626967475        9.8266422753    0   0   0
Ag            3.5262463575        1.3812161803        9.9653284551    0   0   0
End final coordinates



     Writing all to output data dir ./Ag_110/Ag_110.save/

     init_run     :      4.52s CPU      7.82s WALL (       1 calls)
     electrons    :    191.93s CPU    207.43s WALL (      11 calls)
     update_pot   :      8.57s CPU      8.87s WALL (      10 calls)
     forces       :     11.36s CPU     12.66s WALL (      11 calls)
     force_dftd3  :      1.17s CPU      1.70s WALL (      11 calls)
     stress       :     59.74s CPU     60.88s WALL (      11 calls)
     stres_dftd3  :      0.63s CPU      0.95s WALL (      11 calls)

     Called by init_run:
     wfcinit      :      0.88s CPU      1.22s WALL (       1 calls)
     potinit      :      1.23s CPU      3.08s WALL (       1 calls)
     hinit0       :      2.05s CPU      2.84s WALL (       1 calls)

     Called by electrons:
     c_bands      :    164.55s CPU    171.61s WALL (      81 calls)
     sum_band     :     20.44s CPU     21.45s WALL (      81 calls)
     v_of_rho     :      2.81s CPU      9.03s WALL (      82 calls)
     newd         :      4.97s CPU      6.84s WALL (      82 calls)
     mix_rho      :      0.22s CPU      0.34s WALL (      81 calls)
     energy_dftd3 :      0.02s CPU      0.02s WALL (      11 calls)

     Called by c_bands:
     init_us_2    :      1.40s CPU      1.44s WALL (    1665 calls)
     init_us_2:cp :      1.40s CPU      1.44s WALL (    1665 calls)
     cegterg      :    149.77s CPU    154.05s WALL (     729 calls)

     Called by *egterg:
     cdiaghg      :     24.56s CPU     24.73s WALL (    2989 calls)
     h_psi        :     91.07s CPU     94.14s WALL (    3178 calls)
     s_psi        :      7.89s CPU      7.94s WALL (    3178 calls)
     g_psi        :      0.37s CPU      0.37s WALL (    2440 calls)

     Called by h_psi:
     h_psi:calbec :     13.59s CPU     14.48s WALL (    3178 calls)
     vloc_psi     :     68.86s CPU     70.96s WALL (    3178 calls)
     add_vuspsi   :      8.03s CPU      8.10s WALL (    3178 calls)

     General routines
     calbec       :     20.95s CPU     22.31s WALL (    4402 calls)
     fft          :      6.26s CPU     15.36s WALL (    1339 calls)
     ffts         :      0.55s CPU      0.58s WALL (     163 calls)
     fftw         :     69.68s CPU     71.73s WALL (  375285 calls)
     interpolate  :      0.98s CPU      1.36s WALL (      82 calls)

     Parallel routines

     PWSCF        :   4m37.96s CPU   5m 1.10s WALL


   This run was terminated on:   6:56: 7  24Jul2025            

=------------------------------------------------------------------------------=
   JOB DONE.
=------------------------------------------------------------------------------=
[1753350967.992584] [rome19:3348758:0]           flush.c:57   UCX  ERROR req 0x2ebdb00: error during flush: Connection reset by remote peer
[1753350967.992970] [rome19:3348758:0]           flush.c:57   UCX  ERROR req 0x2ebdb00: error during flush: Connection reset by remote peer
