
     Program PWSCF v.7.2 starts on 25Jul2025 at 11: 5:14 

     This program is part of the open-source Quantum ESPRESSO suite
     for quantum simulation of materials; please cite
         "P. Giannozzi et al., J. Phys.:Condens. Matter 21 395502 (2009);
         "P. Giannozzi et al., J. Phys.:Condens. Matter 29 465901 (2017);
         "P. Giannozzi et al., J. Chem. Phys. 152 154105 (2020);
          URL http://www.quantum-espresso.org", 
     in publications or presentations arising from this work. More details at
     http://www.quantum-espresso.org/quote

     Parallel version (MPI & OpenMP), running on     256 processor cores
     Number of MPI processes:               256
     Threads/MPI process:                     1

     MPI processes distributed on     4 nodes
     241954 MiB available memory on the printing compute node when the environment starts

     Reading input from Ag_mp-10597_100_hollow_0.in

     Current dimensions of program PWSCF are:
     Max number of different atomic species (ntypx) = 10
     Max number of k-points (npk) =  40000
     Max angular momentum in pseudopotentials (lmaxx) =  4
     Message from routine iosys:
     restart disabled: needed files not found

     K-points division:     npool     =       4
     R & G space division:  proc/nbgrp/npool/nimage =      64
     Subspace diagonalization in iterative solution of the eigenvalue problem:
     a serial algorithm will be used


     Parallelization info
     --------------------
     sticks:   dense  smooth     PW     G-vecs:    dense   smooth      PW
     Min          30      13      4                 9144     2655     410
     Max          31      14      5                 9185     2694     446
     Sum        1957     855    257               586667   170897   27731

     Using Slab Decomposition



     bravais-lattice index     =            0
     lattice parameter (alat)  =       5.5223  a.u.
     unit-cell volume          =    3105.8847 (a.u.)^3
     number of atoms/cell      =           13
     number of atomic types    =            2
     number of electrons       =       135.00
     number of Kohn-Sham states=           82
     kinetic-energy cutoff     =      55.0000  Ry
     charge density cutoff     =     500.0000  Ry
     scf convergence threshold =      1.0E-06
     mixing beta               =       0.3000
     number of iterations used =            8  plain     mixing
     energy convergence thresh.=      1.0E-04
     force convergence thresh. =      1.0E-03
     Exchange-correlation= PBE
                           (   1   4   3   4   0   0   0)
     nstep                     =          500


     celldm(1)=   5.522345  celldm(2)=   0.000000  celldm(3)=   0.000000
     celldm(4)=   0.000000  celldm(5)=   0.000000  celldm(6)=   0.000000

     crystal axes: (cart. coord. in units of alat)
               a(1) = (   1.000000   0.000000   0.000000 )  
               a(2) = (   0.000000   1.608891   0.000000 )  
               a(3) = (   0.000000   0.000000  11.462728 )  

     reciprocal axes: (cart. coord. in units 2 pi/alat)
               b(1) = (  1.000000 -0.000000  0.000000 )  
               b(2) = (  0.000000  0.621546  0.000000 )  
               b(3) = ( -0.000000 -0.000000  0.087239 )  


     PseudoPot. # 1 for Li read from file:
     /home/ecastro/trabajo_final/pseudos/Li.pbe-s-rrkjus_psl.1.0.0.UPF
     MD5 check sum: 9f98d2529904d60b716d33989e9bc179
     Pseudo is Ultrasoft, Zval =  3.0
     Generated using &quot;atomic&quot; code by A. Dal Corso  v.6.3MaX
     Using radial grid of 1017 points,  4 beta functions with: 
                l(1) =   0
                l(2) =   0
                l(3) =   1
                l(4) =   1
     Q(r) pseudized with 0 coefficients 


     PseudoPot. # 2 for Ag read from file:
     /home/ecastro/trabajo_final/pseudos/Ag.pbe-n-rrkjus_psl.1.0.0.UPF
     MD5 check sum: 81cdf87bacf708300839c66ee23ce017
     Pseudo is Ultrasoft + core correction, Zval = 11.0
     Generated using &quot;atomic&quot; code by A. Dal Corso  v.6.2.2
     Using radial grid of 1237 points,  6 beta functions with: 
                l(1) =   0
                l(2) =   0
                l(3) =   1
                l(4) =   1
                l(5) =   2
                l(6) =   2
     Q(r) pseudized with 0 coefficients 


     atomic species   valence    mass     pseudopotential
        Li             3.00     6.94100     Li( 1.00)
        Ag            11.00   107.86820     Ag( 1.00)

     No symmetry found



   Cartesian axes

     site n.     atom                  positions (alat units)
         1           Ag  tau(   1) = (   0.2500023   1.2066690   8.0025343  )
         2           Ag  tau(   2) = (   0.7500003   0.4022231   7.7510142  )
         3           Ag  tau(   3) = (   0.7500012   1.2066701   7.1569532  )
         4           Ag  tau(   4) = (   0.2499991   0.4022236   6.8754064  )
         5           Ag  tau(   5) = (   0.2500000   1.2066685   6.3087145  )
         6           Ag  tau(   6) = (   0.7500000   0.4022228   6.0200394  )
         7           Ag  tau(   7) = (   0.7500000   1.2066685   5.4426891  )
         8           Ag  tau(   8) = (   0.2500000   0.4022228   5.1540140  )
         9           Ag  tau(   9) = (   0.2500000   1.2066685   4.5766637  )
        10           Ag  tau(  10) = (   0.7500000   0.4022228   4.2879886  )
        11           Ag  tau(  11) = (   0.7500000   1.2066685   3.7106383  )
        12           Ag  tau(  12) = (   0.2500000   0.4022228   3.4219632  )
        13           Li  tau(  13) = (   0.7500016   1.4748175   8.6869270  )

     --------------------------------------------
     DFT-D3 Dispersion Correction (no 3-body):
     --------------------------------------------
       Reference C6 values for interpolation: 

         atom   Coordination number   C6
         Li         0.000          2326.89
         Li         0.987           170.64
         Ag         0.000           853.49
         Ag         0.968           537.23

       Values used:

         atom   Coordination number  R0_AB[au]  C6      C8
         Ag         7.936            3.147    537.23  47741.54
         Ag         7.729            3.147    537.23  47741.54
         Ag         8.818            3.147    537.23  47741.54
         Ag         8.714            3.147    537.23  47741.54
         Ag         8.783            3.147    537.23  47741.54
         Ag         8.701            3.147    537.23  47741.54
         Ag         8.632            3.147    537.23  47741.54
         Ag         8.631            3.147    537.23  47741.54
         Ag         8.626            3.147    537.23  47741.54
         Ag         8.618            3.147    537.23  47741.54
         Ag         7.200            3.147    537.23  47741.54
         Ag         5.720            3.147    537.23  47741.54
         Li         4.153            3.303    170.64  12899.87

         Molecular C6 ( Ry / a.u.^6 ) =     84474.69


     number of k points=    34  Methfessel-Paxton smearing, width (Ry)=  0.0300
                       cart. coord. in units 2pi/alat
        k(    1) = (   0.0000000   0.0000000   0.0000000), wk =   0.0312500
        k(    2) = (   0.0000000   0.0776933   0.0000000), wk =   0.0625000
        k(    3) = (   0.0000000   0.1553865   0.0000000), wk =   0.0625000
        k(    4) = (   0.0000000   0.2330798   0.0000000), wk =   0.0625000
        k(    5) = (   0.0000000  -0.3107730   0.0000000), wk =   0.0312500
        k(    6) = (   0.1250000  -0.0000000   0.0000000), wk =   0.0625000
        k(    7) = (   0.1250000   0.0776933   0.0000000), wk =   0.0625000
        k(    8) = (   0.1250000   0.1553865   0.0000000), wk =   0.0625000
        k(    9) = (   0.1250000   0.2330798   0.0000000), wk =   0.0625000
        k(   10) = (   0.1250000  -0.3107730   0.0000000), wk =   0.0625000
        k(   11) = (   0.1250000  -0.2330798   0.0000000), wk =   0.0625000
        k(   12) = (   0.1250000  -0.1553865   0.0000000), wk =   0.0625000
        k(   13) = (   0.1250000  -0.0776933   0.0000000), wk =   0.0625000
        k(   14) = (   0.2500000  -0.0000000   0.0000000), wk =   0.0625000
        k(   15) = (   0.2500000   0.0776933   0.0000000), wk =   0.0625000
        k(   16) = (   0.2500000   0.1553865   0.0000000), wk =   0.0625000
        k(   17) = (   0.2500000   0.2330798   0.0000000), wk =   0.0625000
        k(   18) = (   0.2500000  -0.3107730   0.0000000), wk =   0.0625000
        k(   19) = (   0.2500000  -0.2330798   0.0000000), wk =   0.0625000
        k(   20) = (   0.2500000  -0.1553865   0.0000000), wk =   0.0625000
        k(   21) = (   0.2500000  -0.0776933   0.0000000), wk =   0.0625000
        k(   22) = (   0.3750000  -0.0000000   0.0000000), wk =   0.0625000
        k(   23) = (   0.3750000   0.0776933   0.0000000), wk =   0.0625000
        k(   24) = (   0.3750000   0.1553865   0.0000000), wk =   0.0625000
        k(   25) = (   0.3750000   0.2330798   0.0000000), wk =   0.0625000
        k(   26) = (   0.3750000  -0.3107730   0.0000000), wk =   0.0625000
        k(   27) = (   0.3750000  -0.2330798   0.0000000), wk =   0.0625000
        k(   28) = (   0.3750000  -0.1553865   0.0000000), wk =   0.0625000
        k(   29) = (   0.3750000  -0.0776933   0.0000000), wk =   0.0625000
        k(   30) = (  -0.5000000   0.0000000   0.0000000), wk =   0.0312500
        k(   31) = (  -0.5000000   0.0776933   0.0000000), wk =   0.0625000
        k(   32) = (  -0.5000000   0.1553865   0.0000000), wk =   0.0625000
        k(   33) = (  -0.5000000   0.2330798   0.0000000), wk =   0.0625000
        k(   34) = (  -0.5000000  -0.3107730   0.0000000), wk =   0.0312500

     Dense  grid:   586667 G-vectors     FFT dimensions: (  40,  64, 480)

     Smooth grid:   170897 G-vectors     FFT dimensions: (  27,  45, 300)

     Estimated max dynamical RAM per process >      22.15 MB

     Estimated total dynamical RAM >       5.12 GB
     Cannot read rho : file not found

     Initial potential from superposition of free atoms

     starting charge     134.9906, renormalised to     135.0000

     negative rho (up, down):  5.947E-05 0.000E+00
     Message from routine qexsd_readschema :
     xml data file ./Ag_mp-10597_100_hollow_0/Ag_mp-10597_100_hollow_0.save/data-file
     Cannot read wfcs: file not found
     Starting wfcs are  113 randomized atomic wfcs

     total cpu time spent up to now is        9.2 secs

     per-process dynamical memory:   180.8 Mb

     Self-consistent Calculation

     iteration #  1     ecut=    55.00 Ry     beta= 0.30
     Davidson diagonalization with overlap
     c_bands:  1 eigenvalues not converged
     c_bands:  1 eigenvalues not converged
     c_bands:  4 eigenvalues not converged
     c_bands:  3 eigenvalues not converged
     c_bands:  3 eigenvalues not converged
     c_bands:  1 eigenvalues not converged
     c_bands:  2 eigenvalues not converged
     c_bands:  3 eigenvalues not converged
     c_bands:  3 eigenvalues not converged
     ethr =  1.00E-05,  avg # of iterations = 19.8

     negative rho (up, down):  4.876E-05 0.000E+00

     total cpu time spent up to now is       15.1 secs

     total energy              =   -1026.26059140 Ry
     estimated scf accuracy    <       0.39439075 Ry

     iteration #  2     ecut=    55.00 Ry     beta= 0.30
     Davidson diagonalization with overlap
     ethr =  2.92E-04,  avg # of iterations =  9.4

     negative rho (up, down):  9.855E-05 0.000E+00

     total cpu time spent up to now is       17.2 secs

     total energy              =   -1025.86839220 Ry
     estimated scf accuracy    <      13.28153999 Ry

     iteration #  3     ecut=    55.00 Ry     beta= 0.30
     Davidson diagonalization with overlap
     ethr =  2.92E-04,  avg # of iterations = 11.0

     negative rho (up, down):  1.388E-04 0.000E+00

     total cpu time spent up to now is       19.4 secs

     total energy              =   -1026.25105697 Ry
     estimated scf accuracy    <       4.22136571 Ry

     iteration #  4     ecut=    55.00 Ry     beta= 0.30
     Davidson diagonalization with overlap
     ethr =  2.92E-04,  avg # of iterations =  7.7

     negative rho (up, down):  1.122E-04 0.000E+00

     total cpu time spent up to now is       21.0 secs

     total energy              =   -1026.36062003 Ry
     estimated scf accuracy    <       1.11383583 Ry

     iteration #  5     ecut=    55.00 Ry     beta= 0.30
     Davidson diagonalization with overlap
     ethr =  2.92E-04,  avg # of iterations =  2.0

     negative rho (up, down):  7.104E-05 0.000E+00

     total cpu time spent up to now is       21.9 secs

     total energy              =   -1026.37849489 Ry
     estimated scf accuracy    <       0.06770148 Ry

     iteration #  6     ecut=    55.00 Ry     beta= 0.30
     Davidson diagonalization with overlap
     ethr =  5.01E-05,  avg # of iterations =  8.1

     negative rho (up, down):  6.982E-05 0.000E+00

     total cpu time spent up to now is       23.5 secs

     total energy              =   -1026.38139448 Ry
     estimated scf accuracy    <       0.01385654 Ry

     iteration #  7     ecut=    55.00 Ry     beta= 0.30
     Davidson diagonalization with overlap
     ethr =  1.03E-05,  avg # of iterations = 10.3

     negative rho (up, down):  3.663E-05 0.000E+00

     total cpu time spent up to now is       25.5 secs

     total energy              =   -1026.38272115 Ry
     estimated scf accuracy    <       0.00241679 Ry

     iteration #  8     ecut=    55.00 Ry     beta= 0.30
     Davidson diagonalization with overlap
     ethr =  1.79E-06,  avg # of iterations =  6.2

     negative rho (up, down):  1.749E-05 0.000E+00

     total cpu time spent up to now is       27.0 secs

     total energy              =   -1026.38292280 Ry
     estimated scf accuracy    <       0.00052725 Ry

     iteration #  9     ecut=    55.00 Ry     beta= 0.30
     Davidson diagonalization with overlap
     ethr =  3.91E-07,  avg # of iterations =  2.0

     negative rho (up, down):  2.361E-05 0.000E+00

     total cpu time spent up to now is       28.0 secs

     total energy              =   -1026.38296688 Ry
     estimated scf accuracy    <       0.00010338 Ry

     iteration # 10     ecut=    55.00 Ry     beta= 0.30
     Davidson diagonalization with overlap
     ethr =  7.66E-08,  avg # of iterations =  2.9

     negative rho (up, down):  2.092E-05 0.000E+00

     total cpu time spent up to now is       29.0 secs

     total energy              =   -1026.38297348 Ry
     estimated scf accuracy    <       0.00007466 Ry

     iteration # 11     ecut=    55.00 Ry     beta= 0.30
     Davidson diagonalization with overlap
     ethr =  5.53E-08,  avg # of iterations =  1.6

     negative rho (up, down):  1.960E-05 0.000E+00

     total cpu time spent up to now is       30.0 secs

     total energy              =   -1026.38297936 Ry
     estimated scf accuracy    <       0.00000627 Ry

     iteration # 12     ecut=    55.00 Ry     beta= 0.30
     Davidson diagonalization with overlap
     ethr =  4.64E-09,  avg # of iterations =  4.5

     negative rho (up, down):  1.826E-05 0.000E+00

     total cpu time spent up to now is       31.2 secs

     total energy              =   -1026.38298027 Ry
     estimated scf accuracy    <       0.00000115 Ry

     iteration # 13     ecut=    55.00 Ry     beta= 0.30
     Davidson diagonalization with overlap
     ethr =  8.48E-10,  avg # of iterations =  3.7

     negative rho (up, down):  1.755E-05 0.000E+00

     total cpu time spent up to now is       32.4 secs

     total energy              =   -1026.38298030 Ry
     estimated scf accuracy    <       0.00001348 Ry

     iteration # 14     ecut=    55.00 Ry     beta= 0.30
     Davidson diagonalization with overlap
     ethr =  8.48E-10,  avg # of iterations =  1.8

     negative rho (up, down):  1.659E-05 0.000E+00

     total cpu time spent up to now is       33.3 secs

     End of self-consistent calculation

          k = 0.0000 0.0000 0.0000 ( 21445 PWs)   bands (ev):

   -43.5158  -3.5387  -3.1055  -2.5028  -2.2104  -2.1879  -2.1129  -2.0394
    -1.9574  -1.8866  -1.8233  -1.8166  -1.7790  -1.6176  -1.5775  -1.1805
    -0.9434  -0.8886  -0.7861  -0.7371  -0.7055  -0.6916  -0.6706  -0.6090
    -0.5649  -0.5512  -0.4929  -0.4645  -0.4191  -0.4128  -0.3964  -0.3856
    -0.3701  -0.3405  -0.2954  -0.2911  -0.2431  -0.2295  -0.2267  -0.1890
    -0.1560  -0.1196  -0.1042  -0.0451  -0.0259   0.0202   0.0296   0.1128
     0.1819   0.2716   0.3137   0.4074   0.5217   0.6103   0.7353   0.7731
     0.8448   0.9547   0.9825   1.0057   1.0607   1.0925   1.0979   1.1322
     1.2331   1.3899   2.5076   3.6552   4.0179   4.3358   4.8759   6.0257
     6.4093   6.9904   7.1903   7.5032   7.6299   7.7407   7.9041   8.2115
     8.2601   8.4733

          k = 0.0000 0.0777 0.0000 ( 21497 PWs)   bands (ev):

   -43.5159  -3.4172  -2.9926  -2.4242  -2.1899  -2.1672  -2.1218  -2.0831
    -1.9917  -1.9197  -1.8781  -1.7933  -1.6191  -1.5325  -1.3788  -1.1003
    -0.9493  -0.8944  -0.8371  -0.7701  -0.7346  -0.7307  -0.7117  -0.6577
    -0.6475  -0.6375  -0.6122  -0.5479  -0.5353  -0.4930  -0.4901  -0.4745
    -0.4249  -0.3749  -0.3610  -0.3146  -0.2387  -0.2204  -0.1510  -0.1189
    -0.0737  -0.0612  -0.0311   0.0371   0.0588   0.1441   0.1904   0.2012
     0.2947   0.3235   0.3948   0.5145   0.5304   0.6769   0.7244   0.7512
     0.8271   0.9385   0.9446   0.9853   1.0179   1.0400   1.0943   1.1068
     1.1975   1.4304   2.5657   3.2507   3.7204   3.9945   4.4334   5.0006
     6.0070   6.4089   6.8899   7.0932   7.4951   7.8585   8.3638   8.4990
     8.7313   8.9348

          k = 0.0000 0.1554 0.0000 ( 21465 PWs)   bands (ev):

   -43.5158  -3.0701  -2.6737  -2.2613  -2.2225  -2.1410  -2.0796  -2.0459
    -1.9440  -1.8473  -1.8143  -1.7045  -1.5417  -1.3250  -1.2410  -1.1879
    -1.1760  -1.0413  -0.9689  -0.9037  -0.8251  -0.8025  -0.7602  -0.7386
    -0.7122  -0.6959  -0.5977  -0.5867  -0.5740  -0.5578  -0.5020  -0.4809
    -0.4550  -0.4237  -0.3434  -0.3077  -0.2109  -0.2026  -0.1024  -0.0532
    -0.0360   0.1235   0.1593   0.1958   0.1976   0.2049   0.3104   0.3365
     0.3952   0.4776   0.5336   0.5627   0.6621   0.6780   0.7214   0.7967
     0.8067   0.8846   0.9145   0.9396   0.9586   0.9644   1.0471   1.0858
     1.1273   1.5998   1.9357   2.6628   2.8135   3.5398   3.9589   4.4659
     4.6893   5.4655   6.1092   6.7066   7.2211   7.6461   8.1445   8.6864
     9.2280   9.6343

          k = 0.0000 0.2331 0.0000 ( 21389 PWs)   bands (ev):

   -43.5157  -2.5751  -2.2620  -2.2221  -2.1058  -2.0328  -1.9954  -1.9513
    -1.8748  -1.7582  -1.7200  -1.5944  -1.5136  -1.4331  -1.4155  -1.3268
    -1.2444  -1.1961  -1.0338  -1.0248  -0.9444  -0.8899  -0.8220  -0.7463
    -0.7298  -0.7283  -0.6560  -0.6433  -0.6089  -0.5026  -0.4232  -0.4196
    -0.3190  -0.2745  -0.2649  -0.2571  -0.1929  -0.1615  -0.0596  -0.0359
     0.0797   0.1422   0.1701   0.3409   0.3468   0.3818   0.4111   0.4428
     0.4761   0.4910   0.5110   0.5504   0.5757   0.7375   0.7578   0.7707
     0.7986   0.8283   0.8401   0.8994   0.9340   0.9668   1.0671   1.0680
     1.0898   1.1764   1.5718   2.1273   2.3089   3.1395   3.3181   4.1293
     4.3285   4.8133   5.3417   6.1979   6.7609   7.8559   8.6005   8.8177
     9.2940   9.5550

          k = 0.0000-0.3108 0.0000 ( 21400 PWs)   bands (ev):

   -43.5158  -2.1955  -2.1363  -2.1233  -2.1160  -1.9827  -1.9706  -1.8655
    -1.7896  -1.7719  -1.7457  -1.6128  -1.4637  -1.4559  -1.3899  -1.3488
    -1.3283  -1.2073  -1.1609  -1.0731  -1.0644  -0.9396  -0.8974  -0.7404
    -0.7182  -0.7170  -0.6361  -0.5366  -0.5167  -0.4897  -0.4667  -0.4331
    -0.3846  -0.2705  -0.2603  -0.1817  -0.0882  -0.0600  -0.0362   0.0095
     0.0543   0.0643   0.0729   0.2022   0.2479   0.3404   0.4668   0.4948
     0.5883   0.6066   0.6238   0.6301   0.6325   0.6430   0.6713   0.7352
     0.7455   0.7974   0.8451   0.9134   0.9331   0.9366   0.9520   1.0621
     1.0797   1.3575   1.3945   2.0070   2.0416   2.9857   3.0232   4.0281
     4.0777   4.6192   5.3319   5.9296   6.4315   8.3043   8.6005   9.0310
     9.2838   9.3403

          k = 0.1250-0.0000 0.0000 ( 21499 PWs)   bands (ev):

   -43.5145  -3.2347  -2.8190  -2.2377  -2.0400  -1.9900  -1.8961  -1.8176
    -1.8085  -1.7921  -1.7100  -1.6377  -1.6002  -1.5824  -1.4216  -1.2420
    -1.1272  -1.0281  -0.9387  -0.8546  -0.8049  -0.7553  -0.7511  -0.6642
    -0.6332  -0.5428  -0.5089  -0.4889  -0.4736  -0.4575  -0.4023  -0.3568
    -0.3359  -0.3320  -0.3177  -0.3050  -0.2963  -0.2436  -0.2343  -0.2244
    -0.1980  -0.1756  -0.1392  -0.0827  -0.0517   0.0075   0.0511   0.0528
     0.1342   0.2179   0.3436   0.3992   0.4824   0.5670   0.7284   0.7391
     0.7720   0.9772   0.9984   1.0037   1.0238   1.0247   1.0457   1.0731
     1.1572   1.8625   2.9447   4.0175   4.7159   4.8389   5.5210   6.5457
     6.6747   7.2641   7.5013   7.8089   7.8318   7.9170   8.0501   8.3903
     8.5457   8.7484

          k = 0.1250 0.0777 0.0000 ( 21491 PWs)   bands (ev):

   -43.5144  -3.1194  -2.7154  -2.1706  -2.0086  -2.0035  -1.9325  -1.8967
    -1.7885  -1.7715  -1.7251  -1.6004  -1.4569  -1.4262  -1.3436  -1.1996
    -1.1259  -1.0528  -0.9678  -0.9223  -0.8851  -0.8046  -0.7543  -0.7068
    -0.6697  -0.6210  -0.6044  -0.5676  -0.5503  -0.4940  -0.4818  -0.4245
    -0.3826  -0.3639  -0.3447  -0.3040  -0.2429  -0.1846  -0.1682  -0.1504
    -0.1109  -0.0789  -0.0475  -0.0305  -0.0070   0.0407   0.1024   0.1482
     0.2148   0.2526   0.3812   0.4318   0.4975   0.5492   0.7077   0.7552
     0.7823   0.8776   0.9301   0.9624   0.9976   1.0042   1.0302   1.0993
     1.1498   1.9375   3.0264   3.9621   4.1067   4.5372   4.8671   5.4260
     6.3622   6.7114   7.2242   7.3818   7.8284   8.1549   8.6491   8.7717
     8.9035   9.1266

          k = 0.1250 0.1554 0.0000 ( 21468 PWs)   bands (ev):

   -43.5144  -2.7906  -2.4248  -2.1057  -2.0039  -1.9583  -1.8982  -1.8315
    -1.7402  -1.6773  -1.6507  -1.5025  -1.3831  -1.3041  -1.2862  -1.1796
    -1.1465  -1.0604  -1.0260  -0.9476  -0.9324  -0.8536  -0.8065  -0.7818
    -0.7651  -0.7371  -0.7141  -0.6981  -0.6611  -0.5775  -0.5174  -0.4821
    -0.4671  -0.3825  -0.3621  -0.3383  -0.2916  -0.1863  -0.1375  -0.0968
    -0.0775   0.0423   0.1189   0.1594   0.1769   0.2202   0.2634   0.3425
     0.3594   0.4010   0.4254   0.4764   0.5096   0.5841   0.6455   0.6760
     0.7005   0.7437   0.8228   0.8576   0.9465   0.9592   1.0374   1.1103
     1.2752   2.1579   2.6583   3.1736   3.2966   3.9334   4.3745   4.8156
     5.1665   5.8313   6.5246   7.0397   7.5133   7.9334   8.4133   8.9669
     9.4506   9.8646

          k = 0.1250 0.2331 0.0000 ( 21413 PWs)   bands (ev):

   -43.5143  -2.3208  -2.0951  -2.0212  -1.9470  -1.8263  -1.8003  -1.7607
    -1.6855  -1.6007  -1.5420  -1.5051  -1.4378  -1.3468  -1.3068  -1.1937
    -1.1630  -1.0716  -1.0419  -0.9736  -0.9561  -0.9306  -0.9026  -0.8511
    -0.8179  -0.7657  -0.7073  -0.6846  -0.6141  -0.5771  -0.5332  -0.4985
    -0.4890  -0.4546  -0.3853  -0.3475  -0.2791  -0.2367  -0.1861  -0.1670
    -0.0420   0.0578   0.1410   0.1852   0.2635   0.2843   0.3155   0.3491
     0.4250   0.4608   0.5035   0.5649   0.5891   0.6664   0.6875   0.7054
     0.7657   0.8122   0.8381   0.8853   0.9232   1.0037   1.0683   1.1366
     1.5334   1.6640   2.0018   2.6138   2.6795   3.5053   3.7871   4.5328
     4.7634   5.3474   5.7410   6.6031   7.0777   8.1278   8.8668   9.0478
     9.5491   9.7707

          k = 0.1250-0.3108 0.0000 ( 21356 PWs)   bands (ev):

   -43.5143  -1.9686  -1.9643  -1.9492  -1.8757  -1.8387  -1.8295  -1.6851
    -1.6571  -1.6031  -1.5925  -1.4489  -1.3478  -1.3354  -1.2538  -1.2237
    -1.2094  -1.1488  -1.0849  -1.0718  -1.0109  -0.9886  -0.9693  -0.9140
    -0.7717  -0.7376  -0.6812  -0.6410  -0.6217  -0.5454  -0.5442  -0.5328
    -0.4042  -0.3949  -0.3387  -0.3181  -0.2670  -0.2027  -0.1539  -0.1412
    -0.1256  -0.0942  -0.0187   0.0519   0.1231   0.2047   0.2679   0.3829
     0.4296   0.5158   0.6123   0.6256   0.6311   0.7273   0.7614   0.8322
     0.8913   0.9253   0.9522   0.9868   1.0285   1.0503   1.0674   1.1741
     1.2016   1.6213   1.6596   2.3536   2.4071   3.4159   3.4690   4.4423
     4.5726   5.1460   5.7284   6.3762   6.7736   8.5533   8.8561   9.2626
     9.5208   9.5963

          k = 0.1250-0.2331 0.0000 ( 21413 PWs)   bands (ev):

   -43.5143  -2.3208  -2.0951  -2.0212  -1.9470  -1.8263  -1.8003  -1.7607
    -1.6855  -1.6007  -1.5420  -1.5051  -1.4378  -1.3468  -1.3068  -1.1937
    -1.1630  -1.0716  -1.0419  -0.9736  -0.9561  -0.9306  -0.9026  -0.8511
    -0.8179  -0.7657  -0.7073  -0.6846  -0.6141  -0.5771  -0.5332  -0.4985
    -0.4890  -0.4546  -0.3853  -0.3475  -0.2791  -0.2367  -0.1861  -0.1670
    -0.0420   0.0578   0.1410   0.1852   0.2635   0.2843   0.3155   0.3491
     0.4250   0.4608   0.5035   0.5649   0.5891   0.6664   0.6875   0.7054
     0.7657   0.8122   0.8381   0.8853   0.9232   1.0037   1.0683   1.1366
     1.5334   1.6640   2.0018   2.6138   2.6795   3.5053   3.7871   4.5328
     4.7634   5.3474   5.7410   6.6031   7.0777   8.1278   8.8668   9.0477
     9.5487   9.7694

          k = 0.1250-0.1554 0.0000 ( 21468 PWs)   bands (ev):

   -43.5144  -2.7906  -2.4248  -2.1057  -2.0039  -1.9583  -1.8982  -1.8315
    -1.7402  -1.6773  -1.6507  -1.5025  -1.3831  -1.3041  -1.2862  -1.1796
    -1.1465  -1.0604  -1.0260  -0.9476  -0.9324  -0.8536  -0.8065  -0.7818
    -0.7651  -0.7371  -0.7141  -0.6981  -0.6611  -0.5775  -0.5174  -0.4821
    -0.4671  -0.3825  -0.3621  -0.3383  -0.2916  -0.1863  -0.1375  -0.0968
    -0.0775   0.0423   0.1189   0.1594   0.1769   0.2202   0.2634   0.3425
     0.3594   0.4010   0.4254   0.4764   0.5096   0.5841   0.6455   0.6760
     0.7005   0.7437   0.8228   0.8576   0.9465   0.9592   1.0374   1.1103
     1.2752   2.1579   2.6583   3.1736   3.2966   3.9334   4.3745   4.8156
     5.1665   5.8313   6.5246   7.0397   7.5134   7.9334   8.4133   8.9669
     9.4506   9.8649

          k = 0.1250-0.0777 0.0000 ( 21491 PWs)   bands (ev):

   -43.5144  -3.1194  -2.7154  -2.1706  -2.0086  -2.0035  -1.9325  -1.8967
    -1.7885  -1.7715  -1.7251  -1.6004  -1.4569  -1.4262  -1.3436  -1.1996
    -1.1259  -1.0528  -0.9678  -0.9223  -0.8851  -0.8046  -0.7543  -0.7068
    -0.6697  -0.6210  -0.6044  -0.5676  -0.5503  -0.4940  -0.4818  -0.4245
    -0.3826  -0.3639  -0.3447  -0.3040  -0.2429  -0.1846  -0.1682  -0.1505
    -0.1109  -0.0789  -0.0475  -0.0305  -0.0070   0.0407   0.1024   0.1482
     0.2148   0.2526   0.3812   0.4318   0.4975   0.5492   0.7077   0.7552
     0.7823   0.8776   0.9301   0.9624   0.9976   1.0042   1.0302   1.0993
     1.1498   1.9375   3.0264   3.9621   4.1067   4.5372   4.8671   5.4260
     6.3622   6.7114   7.2242   7.3818   7.8284   8.1549   8.6492   8.7717
     8.9037   9.1272

          k = 0.2500-0.0000 0.0000 ( 21417 PWs)   bands (ev):

   -43.5108  -2.4617  -2.1867  -1.8287  -1.8248  -1.8106  -1.7768  -1.6854
    -1.6698  -1.5822  -1.5122  -1.4844  -1.4731  -1.4243  -1.2487  -1.2332
    -1.1345  -1.0315  -0.9954  -0.9641  -0.9200  -0.8312  -0.8263  -0.8010
    -0.7801  -0.7697  -0.7191  -0.6199  -0.6006  -0.5565  -0.5519  -0.4936
    -0.4773  -0.4412  -0.4031  -0.3275  -0.2793  -0.2244  -0.1396  -0.1133
    -0.0763  -0.0352  -0.0243   0.0760   0.1722   0.2202   0.2421   0.2945
     0.3214   0.3321   0.3559   0.4592   0.4888   0.6497   0.7153   0.7548
     0.8701   0.9695   0.9837   1.0061   1.0186   1.0463   1.0607   1.1248
     1.6849   2.7552   3.8729   4.8844   5.8590   6.5228   7.0372   7.3718
     7.8204   8.0436   8.1399   8.2078   8.4415   8.6285   8.8647   8.9920
     9.1907   9.4040

          k = 0.2500 0.0777 0.0000 ( 21426 PWs)   bands (ev):

   -43.5109  -2.3887  -2.1527  -1.8593  -1.8019  -1.7835  -1.7379  -1.6833
    -1.6356  -1.5978  -1.5340  -1.4383  -1.3925  -1.3370  -1.2495  -1.2159
    -1.1620  -1.0791  -1.0588  -1.0226  -0.9851  -0.9506  -0.8259  -0.8105
    -0.7514  -0.6953  -0.6512  -0.6400  -0.6009  -0.5333  -0.4821  -0.4775
    -0.4651  -0.4050  -0.3774  -0.3487  -0.2748  -0.2156  -0.1278  -0.0958
    -0.0864  -0.0215   0.0584   0.1563   0.1877   0.2242   0.2466   0.2866
     0.3071   0.3417   0.3683   0.4818   0.5184   0.6518   0.7600   0.7674
     0.8370   0.8627   0.9011   0.9558   1.0128   1.0434   1.0537   1.0812
     1.7444   2.8362   3.9661   4.9709   5.3641   5.7293   6.0313   6.4384
     7.2425   7.4844   8.0783   8.2231   8.6714   9.0021   9.3050   9.4128
     9.5136   9.5516

          k = 0.2500 0.1554 0.0000 ( 21427 PWs)   bands (ev):

   -43.5109  -2.1938  -2.0575  -1.8854  -1.7861  -1.7031  -1.6636  -1.6370
    -1.6012  -1.5403  -1.4790  -1.3985  -1.3389  -1.3167  -1.2579  -1.2161
    -1.2023  -1.1283  -1.0758  -1.0404  -0.9412  -0.9180  -0.8960  -0.8262
    -0.7746  -0.7511  -0.6889  -0.6769  -0.5935  -0.5581  -0.5051  -0.4045
    -0.3999  -0.3637  -0.3340  -0.3013  -0.2430  -0.1747  -0.1106  -0.0849
    -0.0691   0.0481   0.0663   0.1538   0.2184   0.2878   0.3294   0.3795
     0.4121   0.4342   0.4787   0.5403   0.5488   0.6054   0.6586   0.6747
     0.7250   0.8089   0.8593   0.8905   0.9473   1.0802   1.0946   1.1192
     1.9284   3.0775   3.8694   4.2029   4.2822   4.8633   5.2912   5.6920
     6.4165   6.7040   7.5610   7.8576   8.3950   8.7513   9.1899   9.7974
     9.8555  10.0785

          k = 0.2500 0.2331 0.0000 ( 21410 PWs)   bands (ev):

   -43.5109  -1.9547  -1.9082  -1.8358  -1.7541  -1.7127  -1.6684  -1.5975
    -1.5670  -1.5139  -1.4422  -1.4058  -1.3225  -1.2959  -1.2736  -1.2157
    -1.1659  -1.1137  -1.0353  -1.0127  -0.9632  -0.9301  -0.8870  -0.8308
    -0.8047  -0.7610  -0.6788  -0.6389  -0.5924  -0.5578  -0.4514  -0.3718
    -0.3517  -0.3127  -0.2866  -0.2740  -0.2308  -0.1917  -0.1463  -0.1233
    -0.0593  -0.0358   0.0231   0.0641   0.1328   0.2165   0.2350   0.2917
     0.3403   0.4005   0.5293   0.6198   0.6503   0.7310   0.7677   0.8416
     0.8728   0.9222   0.9479   0.9613   1.0431   1.1260   1.1491   1.4527
     2.3199   2.6170   2.8938   3.4736   3.5861   4.4095   4.7134   5.4807
     5.7152   6.5444   6.8998   7.6071   8.0129   8.9479   9.6403   9.7408
    10.1661  10.4577

          k = 0.2500-0.3108 0.0000 ( 21358 PWs)   bands (ev):

   -43.5108  -1.7908  -1.7759  -1.7610  -1.7497  -1.6964  -1.6836  -1.6725
    -1.6649  -1.5913  -1.5255  -1.3312  -1.2245  -1.2207  -1.1828  -1.1687
    -1.1262  -1.1165  -1.0811  -1.0604  -1.0488  -1.0145  -0.9372  -0.8624
    -0.7374  -0.6915  -0.6173  -0.5489  -0.5156  -0.4718  -0.4683  -0.4259
    -0.3457  -0.3286  -0.2960  -0.2250  -0.1773  -0.1654  -0.1343  -0.1192
    -0.1032  -0.0722  -0.0356   0.0011   0.0212   0.0438   0.0693   0.2012
     0.2590   0.4170   0.5933   0.6415   0.6668   0.7511   0.7689   0.9328
     0.9600   1.0588   1.0627   1.0666   1.0859   1.5421   1.5980   1.7689
     1.8306   2.2726   2.3692   3.1541   3.2781   4.3086   4.4730   5.3166
     5.6824   6.2773   6.8235   7.5278   7.8237   9.2736   9.5720   9.9609
    10.2324  10.3546

          k = 0.2500-0.2331 0.0000 ( 21410 PWs)   bands (ev):

   -43.5109  -1.9547  -1.9082  -1.8358  -1.7541  -1.7127  -1.6684  -1.5975
    -1.5670  -1.5139  -1.4422  -1.4058  -1.3225  -1.2959  -1.2736  -1.2157
    -1.1659  -1.1137  -1.0353  -1.0127  -0.9632  -0.9301  -0.8870  -0.8308
    -0.8047  -0.7610  -0.6788  -0.6389  -0.5924  -0.5578  -0.4514  -0.3718
    -0.3517  -0.3127  -0.2866  -0.2740  -0.2308  -0.1917  -0.1463  -0.1233
    -0.0593  -0.0358   0.0231   0.0641   0.1328   0.2165   0.2350   0.2917
     0.3403   0.4005   0.5293   0.6198   0.6503   0.7310   0.7677   0.8416
     0.8728   0.9222   0.9479   0.9613   1.0431   1.1260   1.1491   1.4527
     2.3199   2.6170   2.8938   3.4736   3.5861   4.4095   4.7134   5.4807
     5.7152   6.5444   6.8998   7.6071   8.0129   8.9479   9.6403   9.7408
    10.1661  10.4578

          k = 0.2500-0.1554 0.0000 ( 21427 PWs)   bands (ev):

   -43.5109  -2.1938  -2.0575  -1.8854  -1.7861  -1.7031  -1.6636  -1.6370
    -1.6012  -1.5403  -1.4790  -1.3985  -1.3389  -1.3167  -1.2579  -1.2161
    -1.2023  -1.1283  -1.0758  -1.0404  -0.9412  -0.9180  -0.8960  -0.8262
    -0.7746  -0.7511  -0.6889  -0.6769  -0.5935  -0.5581  -0.5051  -0.4045
    -0.3999  -0.3637  -0.3340  -0.3013  -0.2430  -0.1747  -0.1106  -0.0849
    -0.0691   0.0481   0.0663   0.1538   0.2184   0.2878   0.3294   0.3795
     0.4121   0.4342   0.4787   0.5403   0.5488   0.6054   0.6586   0.6747
     0.7250   0.8089   0.8593   0.8905   0.9473   1.0802   1.0946   1.1192
     1.9284   3.0775   3.8694   4.2029   4.2822   4.8633   5.2912   5.6920
     6.4165   6.7040   7.5610   7.8576   8.3950   8.7514   9.1899   9.7974
     9.8556  10.0787

          k = 0.2500-0.0777 0.0000 ( 21426 PWs)   bands (ev):

   -43.5109  -2.3887  -2.1527  -1.8593  -1.8019  -1.7835  -1.7379  -1.6833
    -1.6356  -1.5978  -1.5340  -1.4383  -1.3925  -1.3370  -1.2495  -1.2159
    -1.1620  -1.0791  -1.0588  -1.0226  -0.9851  -0.9506  -0.8259  -0.8105
    -0.7514  -0.6953  -0.6512  -0.6400  -0.6009  -0.5333  -0.4821  -0.4775
    -0.4651  -0.4050  -0.3774  -0.3487  -0.2748  -0.2156  -0.1278  -0.0958
    -0.0864  -0.0215   0.0584   0.1563   0.1877   0.2242   0.2466   0.2866
     0.3071   0.3417   0.3683   0.4818   0.5184   0.6518   0.7600   0.7674
     0.8370   0.8627   0.9011   0.9558   1.0128   1.0434   1.0537   1.0812
     1.7444   2.8362   3.9661   4.9709   5.3641   5.7293   6.0313   6.4384
     7.2425   7.4844   8.0783   8.2231   8.6715   9.0021   9.3049   9.4130
     9.5134   9.5514

          k = 0.3750-0.0000 0.0000 ( 21365 PWs)   bands (ev):

   -43.5073  -2.0527  -2.0397  -1.8662  -1.8654  -1.8120  -1.8090  -1.7864
    -1.7782  -1.7339  -1.6929  -1.6137  -1.5800  -1.4755  -1.4618  -1.4095
    -1.2873  -1.2276  -1.0372  -0.9416  -0.8098  -0.7938  -0.7811  -0.7438
    -0.7132  -0.7025  -0.6559  -0.5774  -0.5687  -0.4494  -0.4276  -0.3843
    -0.3591  -0.3465  -0.2864  -0.2680  -0.2202  -0.1957  -0.1623  -0.0837
    -0.0350   0.1709   0.2310   0.3167   0.4820   0.5047   0.6540   0.6778
     0.7238   0.7707   0.7898   0.8773   0.8836   0.8989   0.9715   0.9978
     1.0004   1.0261   1.0785   1.0953   1.1468   1.4267   1.5315   1.9826
     2.8812   4.0067   5.0337   5.9561   6.1234   6.6693   7.1530   7.4212
     7.8889   8.4245   8.6214   8.7818   8.9197   8.9704   9.1205   9.4240
     9.5000   9.8574

          k = 0.3750 0.0777 0.0000 ( 21373 PWs)   bands (ev):

   -43.5073  -2.0644  -2.0441  -1.9631  -1.9535  -1.8738  -1.8549  -1.8034
    -1.7657  -1.6914  -1.6006  -1.5024  -1.4339  -1.4257  -1.3831  -1.3188
    -1.2678  -1.1848  -1.0466  -0.9786  -0.9181  -0.8907  -0.8686  -0.8104
    -0.7890  -0.7199  -0.6898  -0.6530  -0.6359  -0.5530  -0.4866  -0.4492
    -0.3588  -0.3162  -0.2644  -0.2048  -0.1216  -0.0460  -0.0244   0.0764
     0.1500   0.2517   0.3023   0.3876   0.5245   0.5643   0.6556   0.7102
     0.7590   0.7764   0.7978   0.8532   0.8555   0.8731   0.9138   0.9274
     0.9700   1.0241   1.0339   1.0356   1.0740   1.4775   1.5485   1.9874
     2.9221   4.0734   5.1107   6.0386   6.2283   6.7004   6.9578   7.0711
     7.1650   7.4671   7.6246   7.9874   8.8387   9.1234   9.3618   9.6318
     9.7590  10.0973

          k = 0.3750 0.1554 0.0000 ( 21345 PWs)   bands (ev):

   -43.5073  -2.1439  -2.1289  -1.9838  -1.9598  -1.8516  -1.8485  -1.7538
    -1.7068  -1.5873  -1.5630  -1.4919  -1.3568  -1.3420  -1.3061  -1.2635
    -1.2583  -1.2157  -1.1717  -1.1649  -1.0900  -1.0552  -0.9402  -0.8739
    -0.8437  -0.7731  -0.6838  -0.6234  -0.5427  -0.5235  -0.4398  -0.3950
    -0.3091  -0.1914  -0.1270  -0.0838  -0.0018   0.0306   0.0450   0.2129
     0.3150   0.3854   0.4660   0.5139   0.5605   0.6221   0.6292   0.6561
     0.6847   0.7073   0.7515   0.7909   0.8249   0.8447   0.8865   0.9044
     0.9339   0.9615   1.0159   1.0887   1.1150   1.5972   1.6617   2.1011
     3.0931   4.2745   5.2824   5.3719   5.6234   5.9642   6.3133   6.4884
     6.5618   6.9033   7.4465   8.0767   8.7340   8.9878   9.2679   9.4407
     9.8004   9.9486

          k = 0.3750 0.2331 0.0000 ( 21344 PWs)   bands (ev):

   -43.5073  -2.1307  -2.1193  -1.9561  -1.9309  -1.8167  -1.8136  -1.7329
    -1.6648  -1.6159  -1.5952  -1.5061  -1.4752  -1.4380  -1.4270  -1.3953
    -1.3466  -1.2277  -1.2020  -1.1441  -1.1159  -1.0478  -0.9511  -0.8750
    -0.7933  -0.6932  -0.6146  -0.4850  -0.4362  -0.3956  -0.3097  -0.2948
    -0.2468  -0.1531  -0.0440   0.0082   0.0891   0.1464   0.2294   0.2379
     0.2821   0.3091   0.3270   0.3418   0.3848   0.4474   0.5166   0.5813
     0.7287   0.7679   0.8165   0.8326   0.8887   0.9158   0.9169   0.9486
     0.9679   0.9912   1.0387   1.1093   1.1347   1.9915   2.0932   2.5683
     3.4735   3.9655   4.1706   4.5689   4.7576   5.4442   5.7275   6.3061
     6.7670   6.9297   7.5354   8.4098   8.6928   8.9926   9.1031   9.4670
     9.5844   9.8210

          k = 0.3750-0.3108 0.0000 ( 21340 PWs)   bands (ev):

   -43.5073  -2.0100  -1.9943  -1.9935  -1.9881  -1.8461  -1.8117  -1.8106
    -1.7929  -1.6934  -1.6099  -1.4824  -1.4640  -1.4182  -1.3907  -1.3513
    -1.3424  -1.2755  -1.2237  -1.1911  -1.1246  -1.0810  -0.9506  -0.9158
    -0.8064  -0.5518  -0.5217  -0.4373  -0.4035  -0.2454  -0.2054  -0.1823
    -0.1411  -0.0634  -0.0252  -0.0100   0.0108   0.0237   0.0519   0.1060
     0.1444   0.2776   0.2902   0.3362   0.3666   0.5007   0.6092   0.6840
     0.7141   0.7526   0.7564   0.8341   0.9081   0.9542   0.9778   0.9926
     1.0015   1.0246   1.0270   1.0531   1.0696   2.7277   2.8130   2.9100
     3.0129   3.3731   3.5444   4.2206   4.4528   5.2480   5.6257   6.1693
     6.7803   7.1271   7.7449   8.3883   8.6498   9.0321   9.1236   9.3300
     9.5586   9.6062

          k = 0.3750-0.2331 0.0000 ( 21344 PWs)   bands (ev):

   -43.5073  -2.1307  -2.1193  -1.9561  -1.9309  -1.8167  -1.8136  -1.7329
    -1.6648  -1.6159  -1.5952  -1.5061  -1.4752  -1.4380  -1.4270  -1.3953
    -1.3466  -1.2277  -1.2020  -1.1441  -1.1159  -1.0478  -0.9511  -0.8750
    -0.7933  -0.6932  -0.6146  -0.4850  -0.4362  -0.3956  -0.3097  -0.2948
    -0.2468  -0.1531  -0.0440   0.0082   0.0891   0.1464   0.2294   0.2379
     0.2821   0.3091   0.3270   0.3418   0.3848   0.4474   0.5166   0.5813
     0.7287   0.7679   0.8165   0.8326   0.8887   0.9158   0.9169   0.9486
     0.9679   0.9912   1.0387   1.1093   1.1347   1.9915   2.0932   2.5683
     3.4735   3.9655   4.1706   4.5689   4.7576   5.4442   5.7275   6.3061
     6.7670   6.9297   7.5354   8.4098   8.6929   8.9926   9.1032   9.4671
     9.5846   9.8212

          k = 0.3750-0.1554 0.0000 ( 21345 PWs)   bands (ev):

   -43.5073  -2.1439  -2.1289  -1.9838  -1.9598  -1.8516  -1.8485  -1.7538
    -1.7068  -1.5873  -1.5630  -1.4919  -1.3568  -1.3420  -1.3061  -1.2635
    -1.2583  -1.2157  -1.1717  -1.1649  -1.0900  -1.0552  -0.9402  -0.8739
    -0.8437  -0.7731  -0.6838  -0.6234  -0.5427  -0.5235  -0.4398  -0.3950
    -0.3091  -0.1914  -0.1270  -0.0838  -0.0018   0.0306   0.0450   0.2129
     0.3150   0.3854   0.4660   0.5139   0.5605   0.6221   0.6292   0.6561
     0.6847   0.7073   0.7515   0.7909   0.8249   0.8447   0.8865   0.9044
     0.9339   0.9615   1.0159   1.0887   1.1150   1.5972   1.6617   2.1011
     3.0931   4.2745   5.2824   5.3719   5.6234   5.9642   6.3132   6.4884
     6.5618   6.9033   7.4465   8.0767   8.7340   8.9877   9.2678   9.4406
     9.8001   9.9486

          k = 0.3750-0.0777 0.0000 ( 21373 PWs)   bands (ev):

   -43.5073  -2.0644  -2.0441  -1.9631  -1.9535  -1.8738  -1.8549  -1.8034
    -1.7657  -1.6914  -1.6006  -1.5024  -1.4339  -1.4257  -1.3831  -1.3188
    -1.2678  -1.1848  -1.0466  -0.9786  -0.9181  -0.8907  -0.8686  -0.8104
    -0.7890  -0.7199  -0.6898  -0.6530  -0.6359  -0.5530  -0.4866  -0.4492
    -0.3588  -0.3162  -0.2644  -0.2048  -0.1216  -0.0460  -0.0244   0.0764
     0.1500   0.2517   0.3023   0.3876   0.5245   0.5643   0.6556   0.7102
     0.7590   0.7764   0.7978   0.8532   0.8555   0.8731   0.9138   0.9274
     0.9700   1.0241   1.0339   1.0356   1.0740   1.4775   1.5485   1.9874
     2.9221   4.0734   5.1107   6.0386   6.2283   6.7004   6.9578   7.0711
     7.1650   7.4671   7.6246   7.9874   8.8387   9.1234   9.3618   9.6318
     9.7589  10.0973

          k =-0.5000 0.0000 0.0000 ( 21294 PWs)   bands (ev):

   -43.5058  -2.1458  -2.1422  -1.9258  -1.9009  -1.8718  -1.8581  -1.7991
    -1.7850  -1.7842  -1.7838  -1.7190  -1.6800  -1.6504  -1.5446  -1.4370
    -1.3907  -1.3106  -1.0770  -1.0588  -0.8358  -0.8035  -0.7867  -0.7766
    -0.7064  -0.6209  -0.6001  -0.4518  -0.4369  -0.4226  -0.3755  -0.3716
    -0.3311  -0.2406  -0.2258  -0.1851  -0.1686  -0.1536  -0.0515   0.0578
     0.1626   0.2035   0.3541   0.4636   0.5096   0.6601   0.6727   0.7331
     0.8807   0.9216   1.0000   1.0239   1.0399   1.0474   1.0649   1.0663
     1.0834   1.1058   1.1068   1.1084   1.1567   3.3921   3.4072   3.5729
     3.6300   3.8930   4.2960   4.8095   4.8192   6.0841   6.4334   7.1644
     7.7300   8.1556   8.3198   9.6056   9.7798  10.2026  10.3074  10.6169
    10.6381  10.8131

          k =-0.5000 0.0777 0.0000 ( 21286 PWs)   bands (ev):

   -43.5057  -2.1286  -2.1156  -2.0751  -2.0740  -1.9338  -1.9114  -1.8604
    -1.8540  -1.7356  -1.6883  -1.5428  -1.5102  -1.4935  -1.4901  -1.3868
    -1.3211  -1.2366  -1.0436  -1.0035  -1.0029  -0.9672  -0.8796  -0.7939
    -0.7691  -0.7271  -0.7252  -0.6656  -0.5903  -0.5097  -0.4395  -0.3078
    -0.2841  -0.1849  -0.1709  -0.1240  -0.1196   0.0058   0.0639   0.2480
     0.2746   0.3851   0.3986   0.5155   0.5919   0.6953   0.7729   0.7769
     0.8653   0.9046   0.9210   0.9416   0.9800   1.0088   1.0291   1.0714
     1.0772   1.0950   1.1057   1.1164   1.1219   3.4694   3.4820   3.6314
     3.6758   3.9284   4.3111   4.8381   4.8408   6.0717   6.4020   7.1380
     7.6937   8.1331   8.2001   9.3013   9.3357   9.4525   9.5684   9.8581
     9.8990  10.0019

          k =-0.5000 0.1554 0.0000 ( 21260 PWs)   bands (ev):

   -43.5057  -2.2300  -2.2209  -2.0656  -2.0532  -1.9706  -1.9645  -1.8243
    -1.8213  -1.6857  -1.6592  -1.5258  -1.4010  -1.3636  -1.3544  -1.3014
    -1.2795  -1.2670  -1.2394  -1.1957  -1.1844  -1.1037  -0.9529  -0.8995
    -0.8735  -0.7583  -0.6835  -0.6572  -0.6013  -0.5959  -0.4319  -0.2116
    -0.1241  -0.0715  -0.0648   0.0092   0.0609   0.1231   0.2719   0.3424
     0.4218   0.4622   0.5100   0.5990   0.6000   0.6946   0.6982   0.7415
     0.7683   0.7832   0.8529   0.8747   0.9170   1.0152   1.0685   1.0805
     1.0988   1.1468   1.1519   1.1643   1.1905   3.7146   3.7175   3.8350
     3.8435   4.0840   4.3569   4.8981   4.9108   5.9774   6.1854   6.8495
     7.0376   7.2723   7.9842   8.6363   8.7463   8.9118   8.9826   9.1159
     9.2762   9.5221

          k =-0.5000 0.2331 0.0000 ( 21256 PWs)   bands (ev):

   -43.5056  -2.2296  -2.2217  -2.0446  -2.0272  -1.9334  -1.9324  -1.8147
    -1.7861  -1.7041  -1.7019  -1.5584  -1.5310  -1.5306  -1.5110  -1.4404
    -1.4027  -1.3478  -1.2881  -1.2410  -1.1883  -1.0168  -0.9895  -0.8563
    -0.7983  -0.7290  -0.5529  -0.5050  -0.4426  -0.3229  -0.3023  -0.1913
    -0.1327   0.0122   0.0211   0.0920   0.2381   0.2539   0.2991   0.3387
     0.3576   0.3819   0.4064   0.4445   0.4532   0.5955   0.6303   0.7286
     0.8248   0.9045   0.9157   0.9454   0.9724   1.0461   1.0524   1.1401
     1.1587   1.1726   1.1807   1.1837   1.2246   4.1515   4.1725   4.2158
     4.2387   4.4321   4.4509   4.9585   4.9685   5.5925   5.6167   5.9059
     6.0802   6.1676   7.7483   8.3069   8.5849   8.6591   8.8167   8.9618
     8.9926   9.3259

          k =-0.5000-0.3108 0.0000 ( 21304 PWs)   bands (ev):

   -43.5057  -2.1122  -2.1010  -2.0959  -2.0898  -1.9326  -1.9068  -1.8942
    -1.8846  -1.7949  -1.7394  -1.6444  -1.5238  -1.4956  -1.4809  -1.4300
    -1.4287  -1.3693  -1.3039  -1.2477  -1.1612  -1.1609  -0.9691  -0.9466
    -0.8780  -0.3893  -0.3736  -0.3198  -0.2510  -0.2240  -0.1591  -0.1472
    -0.1183  -0.0290  -0.0069   0.0246   0.0293   0.0767   0.0796   0.1015
     0.2071   0.4114   0.4556   0.4935   0.5289   0.8241   0.8465   0.8597
     0.8744   0.8883   0.9507   1.0003   1.0500   1.0721   1.0831   1.0833
     1.0836   1.0950   1.0974   1.1614   1.1956   4.4108   4.7132   4.7886
     4.8128   4.8145   4.8386   4.8749   4.8992   4.9011   4.9080   5.0728
     5.5068   5.6579   7.6371   8.1942   8.5202   8.5816   8.8350   8.9411
     9.0453   9.2059

     the Fermi energy is     4.0307 ev

!    total energy              =   -1026.38298057 Ry
     estimated scf accuracy    <       0.00000020 Ry
     smearing contrib. (-TS)   =      -0.00170182 Ry
     internal energy E=F+TS    =   -1026.38127874 Ry

     The total energy is F=E-TS. E is the sum of the following terms:
     one-electron contribution =  -14317.87188958 Ry
     hartree contribution      =    7262.92779278 Ry
     xc contribution           =    -271.56982887 Ry
     ewald contribution        =    6300.50352025 Ry
     DFT-D3 Dispersion         =      -0.37087332 Ry

     convergence has been achieved in  14 iterations

     negative rho (up, down):  1.659E-05 0.000E+00

     Forces acting on atoms (cartesian axes, Ry/au):

     atom    1 type  2   force =    -0.00000097   -0.00620807   -0.00064279
     atom    2 type  2   force =     0.00000097   -0.00083325    0.00498120
     atom    3 type  2   force =    -0.00000159   -0.00142271   -0.00428711
     atom    4 type  2   force =     0.00000064    0.00015913    0.00245232
     atom    5 type  2   force =     0.00000074    0.00048511   -0.00475446
     atom    6 type  2   force =    -0.00000016   -0.00002897   -0.00433799
     atom    7 type  2   force =    -0.00000044   -0.00014397    0.00178883
     atom    8 type  2   force =    -0.00000119    0.00004903   -0.00001802
     atom    9 type  2   force =     0.00000042    0.00001126    0.00486452
     atom   10 type  2   force =     0.00000029    0.00004780    0.00103452
     atom   11 type  2   force =     0.00000071   -0.00013684   -0.00366069
     atom   12 type  2   force =     0.00000068    0.00019042    0.00681033
     atom   13 type  1   force =    -0.00000010    0.00783106   -0.00423068
     The non-local contrib.  to forces
     atom    1 type  2   force =    -0.00000043   -0.01180077    0.02132709
     atom    2 type  2   force =     0.00000043   -0.00022272    0.02482905
     atom    3 type  2   force =    -0.00000032    0.00365672    0.01924689
     atom    4 type  2   force =     0.00000011    0.00098841    0.01218985
     atom    5 type  2   force =     0.00000078   -0.00143930   -0.00481869
     atom    6 type  2   force =    -0.00000004    0.00017417   -0.00195856
     atom    7 type  2   force =    -0.00000046    0.00038053    0.00161180
     atom    8 type  2   force =    -0.00000167   -0.00018040   -0.00971772
     atom    9 type  2   force =     0.00000037    0.00002442   -0.00100359
     atom   10 type  2   force =     0.00000070   -0.00003023   -0.02800093
     atom   11 type  2   force =     0.00000039    0.00100881   -0.02063954
     atom   12 type  2   force =     0.00000048   -0.00109489   -0.10211544
     atom   13 type  1   force =    -0.00000025    0.02014211    0.06503760
     The ionic contribution  to forces
     atom    1 type  2   force =    -0.00001714   -0.96072213  169.39276537
     atom    2 type  2   force =     0.00000733    0.38214820  154.01907630
     atom    3 type  2   force =    -0.00001115   -0.03753164  106.65615131
     atom    4 type  2   force =     0.00001639    0.01237818   85.23769132
     atom    5 type  2   force =     0.00000618   -0.00135000   39.96981377
     atom    6 type  2   force =    -0.00000307    0.00043648   17.69689079
     atom    7 type  2   force =    -0.00000004   -0.00004580  -26.62131002
     atom    8 type  2   force =     0.00000001    0.00001483  -48.78294054
     atom    9 type  2   force =     0.00000000   -0.00000156  -93.16545142
     atom   10 type  2   force =    -0.00000000    0.00000050 -115.12111592
     atom   11 type  2   force =    -0.00000000   -0.00000005 -160.68982323
     atom   12 type  2   force =     0.00000000    0.00000002 -177.66080309
     atom   13 type  1   force =     0.00000149    0.60467298   49.06905537
     The local contribution  to forces
     atom    1 type  2   force =     0.00001565    0.96404784 -169.40951217
     atom    2 type  2   force =    -0.00000639   -0.38288056 -154.03266230
     atom    3 type  2   force =     0.00001137    0.03242544 -106.67704259
     atom    4 type  2   force =    -0.00001697   -0.01320564  -85.24522770
     atom    5 type  2   force =    -0.00000624    0.00329265  -39.97150766
     atom    6 type  2   force =     0.00000348   -0.00065322  -17.70057101
     atom    7 type  2   force =     0.00000010   -0.00049304   26.62032149
     atom    8 type  2   force =    -0.00000013    0.00022119   48.79143545
     atom    9 type  2   force =     0.00000001   -0.00001868   93.16869300
     atom   10 type  2   force =    -0.00000072    0.00007687  115.14570488
     atom   11 type  2   force =    -0.00000083   -0.00115615  160.69760654
     atom   12 type  2   force =     0.00000022    0.00129012  177.75956068
     atom   13 type  1   force =    -0.00000111   -0.61693442  -49.13541600
     The core correction contribution to forces
     atom    1 type  2   force =     0.00000003    0.00278126   -0.00008415
     atom    2 type  2   force =    -0.00000002   -0.00033498   -0.00235770
     atom    3 type  2   force =     0.00000011   -0.00003481    0.00017977
     atom    4 type  2   force =    -0.00000010   -0.00000518   -0.00079703
     atom    5 type  2   force =    -0.00000002    0.00000468    0.00091415
     atom    6 type  2   force =     0.00000003    0.00000302    0.00037381
     atom    7 type  2   force =     0.00000001   -0.00000229    0.00002639
     atom    8 type  2   force =    -0.00000002   -0.00000027   -0.00007933
     atom    9 type  2   force =    -0.00000000    0.00000011    0.00001479
     atom   10 type  2   force =    -0.00000003    0.00000035    0.00004116
     atom   11 type  2   force =    -0.00000005    0.00000428    0.00403541
     atom   12 type  2   force =     0.00000000   -0.00000592    0.00609891
     atom   13 type  1   force =     0.00000000    0.00000000    0.00000000
     The Hubbard contrib.    to forces
     atom    1 type  2   force =     0.00000000    0.00000000    0.00000000
     atom    2 type  2   force =     0.00000000    0.00000000    0.00000000
     atom    3 type  2   force =     0.00000000    0.00000000    0.00000000
     atom    4 type  2   force =     0.00000000    0.00000000    0.00000000
     atom    5 type  2   force =     0.00000000    0.00000000    0.00000000
     atom    6 type  2   force =     0.00000000    0.00000000    0.00000000
     atom    7 type  2   force =     0.00000000    0.00000000    0.00000000
     atom    8 type  2   force =     0.00000000    0.00000000    0.00000000
     atom    9 type  2   force =     0.00000000    0.00000000    0.00000000
     atom   10 type  2   force =     0.00000000    0.00000000    0.00000000
     atom   11 type  2   force =     0.00000000    0.00000000    0.00000000
     atom   12 type  2   force =     0.00000000    0.00000000    0.00000000
     atom   13 type  1   force =     0.00000000    0.00000000    0.00000000
     The SCF correction term to forces
     atom    1 type  2   force =     0.00000084   -0.00010789   -0.00052694
     atom    2 type  2   force =    -0.00000040   -0.00000315    0.00041009
     atom    3 type  2   force =    -0.00000168    0.00003430    0.00066788
     atom    4 type  2   force =     0.00000121    0.00001695    0.00067708
     atom    5 type  2   force =     0.00000001   -0.00002762    0.00090497
     atom    6 type  2   force =    -0.00000062    0.00000738    0.00095518
     atom    7 type  2   force =    -0.00000008    0.00001313    0.00088746
     atom    8 type  2   force =     0.00000058   -0.00000980    0.00080932
     atom    9 type  2   force =    -0.00000001    0.00000349    0.00050353
     atom   10 type  2   force =     0.00000029   -0.00000318    0.00028664
     atom   11 type  2   force =     0.00000114    0.00000279    0.00000683
     atom   12 type  2   force =    -0.00000007   -0.00000240   -0.00025078
     atom   13 type  1   force =    -0.00000028    0.00000122   -0.00010622

     DFT-D3 dispersion contribution to forces:
     atom    1 type  2   force =     0.00000004   -0.00040987   -0.00453801
     atom    2 type  2   force =    -0.00000002    0.00045649   -0.00424026
     atom    3 type  2   force =     0.00000003    0.00002381   -0.00341640
     atom    4 type  2   force =    -0.00000004   -0.00001707   -0.00200723
     atom    5 type  2   force =    -0.00000001    0.00000122    0.00001297
     atom    6 type  2   force =     0.00000001   -0.00000029    0.00004577
     atom    7 type  2   force =    -0.00000000    0.00000002    0.00032569
     atom    8 type  2   force =     0.00000000   -0.00000000    0.00054877
     atom    9 type  2   force =    -0.00000000    0.00000000    0.00218219
     atom   10 type  2   force =     0.00000000   -0.00000000    0.00419266
     atom   11 type  2   force =     0.00000000   -0.00000000    0.00522728
     atom   12 type  2   force =     0.00000000    0.00000000    0.00439403
     atom   13 type  1   force =    -0.00000000   -0.00005430   -0.00272746

     Total force =     0.017308     Total SCF correction =     0.002225
     SCF correction compared to forces is large: reduce conv_thr to get better values


     Computing stress (Cartesian axis) and pressure


     negative rho (up, down):  1.659E-05 0.000E+00
          total   stress  (Ry/bohr**3)                   (kbar)     P=      -15.91
  -0.00010681   0.00000000  -0.00000000          -15.71        0.00       -0.00
   0.00000000  -0.00010611   0.00001003            0.00      -15.61        1.48
  -0.00000000   0.00001003  -0.00011154           -0.00        1.48      -16.41


     BFGS Geometry Optimization
     Energy error            =      0.0E+00 Ry
     Gradient error          =      7.8E-03 Ry/Bohr

     number of scf cycles    =   1
     number of bfgs steps    =   0

     energy             new  =   -1026.3829805671 Ry

     new trust radius        =       0.0089007963 bohr
     new conv_thr            =       0.0000010000 Ry


ATOMIC_POSITIONS (angstrom)
Ag            0.7305809143        3.5229627338       23.3854590557
Ag            2.1917257845        1.1749752328       22.6534179684
Ag            2.1917269583        3.5254980730       20.9124896148
Ag            0.7305723650        1.1755019929       20.0932918742
Ag            0.7305751767        3.5265030675       18.4334350244
Ag            2.1917242724        1.1754001226       17.5900603151
Ag            2.1917241227        3.5261701730       15.9061122936
Ag            0.7305741570        1.1754413977       15.0615610492
Ag            0.7305750050        3.5262523187       13.3769545857
Ag            2.1917245085        1.1754407445       12.5313327394
Ag            2.1917247285        3.5261739440       10.8416579423
Ag            0.7305751465        1.1755162159       10.0036038711
Li            2.1917290346        4.3140019475       25.3835604237



     Writing config-only to output data dir ./Ag_mp-10597_100_hollow_0/Ag_mp-10597_100_hollow_0.save/
     NEW-OLD atomic charge density approx. for the potential

     negative rho (up, down):  1.667E-05 0.000E+00

     total cpu time spent up to now is       36.1 secs

     per-process dynamical memory:   190.3 Mb

     Self-consistent Calculation

     iteration #  1     ecut=    55.00 Ry     beta= 0.30
     Davidson diagonalization with overlap
     ethr =  1.00E-06,  avg # of iterations =  3.0

     negative rho (up, down):  1.664E-05 0.000E+00

     total cpu time spent up to now is       37.8 secs

     total energy              =   -1026.38301502 Ry
     estimated scf accuracy    <       0.00049828 Ry

     iteration #  2     ecut=    55.00 Ry     beta= 0.30
     Davidson diagonalization with overlap
     ethr =  3.69E-07,  avg # of iterations = 11.4

     negative rho (up, down):  1.688E-05 0.000E+00

     total cpu time spent up to now is       40.2 secs

     total energy              =   -1026.38090656 Ry
     estimated scf accuracy    <       0.15014380 Ry

     iteration #  3     ecut=    55.00 Ry     beta= 0.30
     Davidson diagonalization with overlap
     ethr =  3.69E-07,  avg # of iterations = 10.9

     negative rho (up, down):  1.721E-05 0.000E+00

     total cpu time spent up to now is       42.1 secs

     total energy              =   -1026.38326649 Ry
     estimated scf accuracy    <       0.00008558 Ry

     iteration #  4     ecut=    55.00 Ry     beta= 0.30
     Davidson diagonalization with overlap
     ethr =  6.34E-08,  avg # of iterations =  1.2

     negative rho (up, down):  1.738E-05 0.000E+00

     total cpu time spent up to now is       43.1 secs

     total energy              =   -1026.38327103 Ry
     estimated scf accuracy    <       0.00001537 Ry

     iteration #  5     ecut=    55.00 Ry     beta= 0.30
     Davidson diagonalization with overlap
     ethr =  1.14E-08,  avg # of iterations =  1.8

     negative rho (up, down):  1.731E-05 0.000E+00

     total cpu time spent up to now is       44.1 secs

     total energy              =   -1026.38327169 Ry
     estimated scf accuracy    <       0.00000135 Ry

     iteration #  6     ecut=    55.00 Ry     beta= 0.30
     Davidson diagonalization with overlap
     ethr =  1.00E-09,  avg # of iterations =  3.5

     negative rho (up, down):  1.665E-05 0.000E+00

     total cpu time spent up to now is       45.3 secs

     End of self-consistent calculation

          k = 0.0000 0.0000 0.0000 ( 21445 PWs)   bands (ev):

   -43.5161  -3.5391  -3.1042  -2.5031  -2.2103  -2.1879  -2.1131  -2.0400
    -1.9571  -1.8866  -1.8266  -1.8173  -1.7807  -1.6185  -1.5772  -1.1815
    -0.9420  -0.8896  -0.7864  -0.7382  -0.7064  -0.6923  -0.6694  -0.6087
    -0.5653  -0.5488  -0.4936  -0.4652  -0.4188  -0.4131  -0.3980  -0.3841
    -0.3698  -0.3404  -0.2940  -0.2920  -0.2434  -0.2324  -0.2253  -0.1890
    -0.1563  -0.1208  -0.1011  -0.0450  -0.0240   0.0219   0.0291   0.1152
     0.1801   0.2736   0.3119   0.4078   0.5220   0.6101   0.7347   0.7718
     0.8434   0.9557   0.9836   1.0066   1.0615   1.0927   1.0989   1.1317
     1.2363   1.3899   2.5076   3.6567   4.0174   4.3370   4.8767   6.0241
     6.4117   6.9901   7.1892   7.5002   7.6283   7.7405   7.9038   8.2115
     8.2622   8.4738

          k = 0.0000 0.0777 0.0000 ( 21497 PWs)   bands (ev):

   -43.5162  -3.4177  -2.9914  -2.4242  -2.1897  -2.1673  -2.1216  -2.0847
    -1.9906  -1.9199  -1.8808  -1.7941  -1.6206  -1.5332  -1.3790  -1.1010
    -0.9483  -0.8951  -0.8364  -0.7700  -0.7355  -0.7310  -0.7118  -0.6578
    -0.6479  -0.6377  -0.6099  -0.5479  -0.5355  -0.4928  -0.4900  -0.4744
    -0.4246  -0.3744  -0.3618  -0.3153  -0.2392  -0.2202  -0.1509  -0.1181
    -0.0742  -0.0623  -0.0319   0.0381   0.0610   0.1442   0.1884   0.2022
     0.2938   0.3231   0.3952   0.5146   0.5317   0.6773   0.7238   0.7499
     0.8259   0.9390   0.9457   0.9857   1.0195   1.0403   1.0939   1.1072
     1.1999   1.4306   2.5661   3.2502   3.7222   3.9946   4.4348   4.9985
     6.0047   6.4114   6.8871   7.0931   7.4980   7.8583   8.3658   8.4996
     8.7317   8.9341

          k = 0.0000 0.1554 0.0000 ( 21465 PWs)   bands (ev):

   -43.5161  -3.0705  -2.6724  -2.2611  -2.2216  -2.1408  -2.0806  -2.0457
    -1.9434  -1.8492  -1.8140  -1.7049  -1.5431  -1.3252  -1.2408  -1.1865
    -1.1762  -1.0408  -0.9690  -0.9036  -0.8228  -0.8027  -0.7610  -0.7382
    -0.7118  -0.6968  -0.5984  -0.5865  -0.5737  -0.5574  -0.5018  -0.4820
    -0.4530  -0.4249  -0.3438  -0.3092  -0.2105  -0.2020  -0.1035  -0.0522
    -0.0357   0.1208   0.1585   0.1938   0.1976   0.2051   0.3097   0.3368
     0.3949   0.4777   0.5352   0.5630   0.6611   0.6770   0.7208   0.7967
     0.8077   0.8858   0.9140   0.9399   0.9584   0.9646   1.0475   1.0866
     1.1277   1.5997   1.9351   2.6627   2.8148   3.5383   3.9600   4.4654
     4.6892   5.4624   6.1107   6.7112   7.2215   7.6493   8.1455   8.6873
     9.2290   9.6337

          k = 0.0000 0.2331 0.0000 ( 21389 PWs)   bands (ev):

   -43.5160  -2.5754  -2.2610  -2.2218  -2.1056  -2.0312  -1.9943  -1.9520
    -1.8740  -1.7592  -1.7193  -1.5947  -1.5136  -1.4333  -1.4155  -1.3267
    -1.2437  -1.1953  -1.0322  -1.0248  -0.9449  -0.8905  -0.8226  -0.7460
    -0.7309  -0.7277  -0.6562  -0.6436  -0.6083  -0.5015  -0.4231  -0.4196
    -0.3187  -0.2737  -0.2649  -0.2581  -0.1933  -0.1624  -0.0586  -0.0366
     0.0782   0.1423   0.1703   0.3405   0.3459   0.3804   0.4112   0.4419
     0.4759   0.4910   0.5112   0.5484   0.5750   0.7370   0.7570   0.7713
     0.7978   0.8293   0.8402   0.8982   0.9335   0.9664   1.0677   1.0682
     1.0898   1.1760   1.5717   2.1257   2.3071   3.1377   3.3202   4.1262
     4.3303   4.8150   5.3433   6.2021   6.7663   7.8561   8.6017   8.8174
     9.2934   9.5563

          k = 0.0000-0.3108 0.0000 ( 21400 PWs)   bands (ev):

   -43.5161  -2.1960  -2.1355  -2.1233  -2.1156  -1.9824  -1.9695  -1.8642
    -1.7896  -1.7706  -1.7450  -1.6123  -1.4638  -1.4555  -1.3896  -1.3477
    -1.3292  -1.2065  -1.1617  -1.0733  -1.0641  -0.9410  -0.8979  -0.7411
    -0.7174  -0.7166  -0.6357  -0.5353  -0.5156  -0.4903  -0.4673  -0.4326
    -0.3856  -0.2705  -0.2593  -0.1825  -0.0894  -0.0609  -0.0340   0.0097
     0.0541   0.0641   0.0730   0.2025   0.2462   0.3404   0.4667   0.4930
     0.5874   0.6060   0.6238   0.6301   0.6323   0.6420   0.6695   0.7356
     0.7448   0.7970   0.8441   0.9121   0.9324   0.9365   0.9517   1.0622
     1.0801   1.3568   1.3927   2.0064   2.0400   2.9838   3.0203   4.0308
     4.0793   4.6211   5.3323   5.9345   6.4380   8.3036   8.6009   9.0328
     9.2832   9.3429

          k = 0.1250-0.0000 0.0000 ( 21499 PWs)   bands (ev):

   -43.5148  -3.2352  -2.8177  -2.2378  -2.0405  -1.9899  -1.8960  -1.8176
    -1.8090  -1.7921  -1.7100  -1.6404  -1.6009  -1.5828  -1.4227  -1.2428
    -1.1257  -1.0290  -0.9391  -0.8558  -0.8053  -0.7556  -0.7518  -0.6636
    -0.6311  -0.5442  -0.5079  -0.4906  -0.4750  -0.4568  -0.4026  -0.3574
    -0.3359  -0.3321  -0.3180  -0.3044  -0.2962  -0.2427  -0.2336  -0.2227
    -0.1983  -0.1742  -0.1382  -0.0821  -0.0498   0.0078   0.0512   0.0529
     0.1337   0.2151   0.3444   0.3988   0.4820   0.5676   0.7279   0.7385
     0.7712   0.9779   0.9984   1.0040   1.0233   1.0256   1.0464   1.0724
     1.1589   1.8627   2.9453   4.0192   4.7169   4.8391   5.5220   6.5448
     6.6771   7.2637   7.4991   7.8084   7.8325   7.9148   8.0487   8.3902
     8.5473   8.7470

          k = 0.1250 0.0777 0.0000 ( 21491 PWs)   bands (ev):

   -43.5147  -3.1198  -2.7141  -2.1703  -2.0088  -2.0037  -1.9325  -1.8971
    -1.7870  -1.7719  -1.7274  -1.6006  -1.4582  -1.4276  -1.3438  -1.1995
    -1.1250  -1.0530  -0.9692  -0.9222  -0.8857  -0.8043  -0.7566  -0.7051
    -0.6682  -0.6203  -0.6054  -0.5684  -0.5504  -0.4930  -0.4809  -0.4255
    -0.3825  -0.3648  -0.3450  -0.3034  -0.2425  -0.1839  -0.1680  -0.1501
    -0.1118  -0.0782  -0.0470  -0.0311  -0.0067   0.0408   0.1022   0.1486
     0.2157   0.2508   0.3822   0.4317   0.4975   0.5495   0.7069   0.7547
     0.7817   0.8772   0.9308   0.9619   0.9982   1.0051   1.0301   1.1003
     1.1496   1.9377   3.0273   3.9623   4.1083   4.5378   4.8685   5.4244
     6.3601   6.7141   7.2218   7.3819   7.8311   8.1546   8.6513   8.7722
     8.9038   9.1264

          k = 0.1250 0.1554 0.0000 ( 21468 PWs)   bands (ev):

   -43.5147  -2.7910  -2.4236  -2.1055  -2.0029  -1.9575  -1.8996  -1.8311
    -1.7404  -1.6770  -1.6516  -1.5022  -1.3833  -1.3041  -1.2873  -1.1796
    -1.1465  -1.0609  -1.0246  -0.9470  -0.9343  -0.8525  -0.8052  -0.7814
    -0.7653  -0.7372  -0.7146  -0.6997  -0.6616  -0.5776  -0.5178  -0.4817
    -0.4667  -0.3822  -0.3629  -0.3377  -0.2920  -0.1870  -0.1372  -0.0965
    -0.0788   0.0420   0.1194   0.1598   0.1768   0.2195   0.2635   0.3431
     0.3589   0.3998   0.4259   0.4776   0.5088   0.5842   0.6444   0.6763
     0.7000   0.7436   0.8225   0.8570   0.9467   0.9592   1.0384   1.1099
     1.2751   2.1579   2.6582   3.1740   3.2981   3.9324   4.3755   4.8151
     5.1667   5.8290   6.5259   7.0439   7.5137   7.9364   8.4143   8.9680
     9.4517   9.8645

          k = 0.1250 0.2331 0.0000 ( 21413 PWs)   bands (ev):

   -43.5146  -2.3211  -2.0946  -2.0204  -1.9466  -1.8238  -1.7992  -1.7623
    -1.6858  -1.6011  -1.5410  -1.5039  -1.4386  -1.3460  -1.3065  -1.1945
    -1.1631  -1.0704  -1.0412  -0.9737  -0.9553  -0.9319  -0.9020  -0.8507
    -0.8192  -0.7669  -0.7067  -0.6862  -0.6150  -0.5770  -0.5331  -0.4988
    -0.4885  -0.4532  -0.3857  -0.3479  -0.2799  -0.2368  -0.1867  -0.1668
    -0.0424   0.0582   0.1411   0.1850   0.2629   0.2840   0.3152   0.3486
     0.4239   0.4606   0.5037   0.5642   0.5882   0.6661   0.6873   0.7054
     0.7649   0.8123   0.8376   0.8846   0.9238   1.0034   1.0685   1.1367
     1.5342   1.6630   2.0023   2.6133   2.6778   3.5037   3.7890   4.5302
     4.7650   5.3484   5.7427   6.6068   7.0827   8.1281   8.8682   9.0477
     9.5488   9.7726

          k = 0.1250-0.3108 0.0000 ( 21356 PWs)   bands (ev):

   -43.5146  -1.9676  -1.9635  -1.9497  -1.8756  -1.8380  -1.8293  -1.6847
    -1.6564  -1.6028  -1.5914  -1.4472  -1.3479  -1.3348  -1.2523  -1.2232
    -1.2095  -1.1478  -1.0859  -1.0730  -1.0121  -0.9899  -0.9684  -0.9141
    -0.7708  -0.7396  -0.6822  -0.6415  -0.6209  -0.5449  -0.5441  -0.5333
    -0.4042  -0.3946  -0.3395  -0.3180  -0.2669  -0.2036  -0.1538  -0.1418
    -0.1252  -0.0940  -0.0185   0.0508   0.1215   0.2041   0.2673   0.3822
     0.4303   0.5147   0.6125   0.6251   0.6303   0.7263   0.7610   0.8315
     0.8906   0.9253   0.9524   0.9866   1.0282   1.0510   1.0682   1.1739
     1.2023   1.6208   1.6583   2.3531   2.4053   3.4151   3.4660   4.4451
     4.5732   5.1474   5.7286   6.3811   6.7795   8.5525   8.8565   9.2646
     9.5209   9.5984

          k = 0.1250-0.2331 0.0000 ( 21413 PWs)   bands (ev):

   -43.5146  -2.3211  -2.0946  -2.0204  -1.9466  -1.8238  -1.7992  -1.7623
    -1.6858  -1.6011  -1.5410  -1.5039  -1.4386  -1.3460  -1.3065  -1.1945
    -1.1631  -1.0704  -1.0412  -0.9737  -0.9553  -0.9319  -0.9020  -0.8507
    -0.8192  -0.7669  -0.7067  -0.6862  -0.6150  -0.5770  -0.5331  -0.4988
    -0.4885  -0.4532  -0.3857  -0.3479  -0.2799  -0.2368  -0.1867  -0.1668
    -0.0424   0.0582   0.1411   0.1850   0.2629   0.2840   0.3152   0.3486
     0.4239   0.4606   0.5037   0.5642   0.5882   0.6661   0.6873   0.7054
     0.7649   0.8123   0.8376   0.8846   0.9238   1.0034   1.0685   1.1367
     1.5342   1.6630   2.0023   2.6133   2.6778   3.5037   3.7890   4.5302
     4.7650   5.3484   5.7427   6.6068   7.0827   8.1281   8.8682   9.0477
     9.5489   9.7729

          k = 0.1250-0.1554 0.0000 ( 21468 PWs)   bands (ev):

   -43.5147  -2.7910  -2.4236  -2.1055  -2.0029  -1.9575  -1.8996  -1.8311
    -1.7404  -1.6770  -1.6516  -1.5022  -1.3833  -1.3041  -1.2873  -1.1796
    -1.1465  -1.0609  -1.0246  -0.9470  -0.9343  -0.8525  -0.8052  -0.7814
    -0.7653  -0.7372  -0.7146  -0.6997  -0.6616  -0.5776  -0.5178  -0.4817
    -0.4667  -0.3822  -0.3629  -0.3377  -0.2920  -0.1870  -0.1372  -0.0965
    -0.0788   0.0420   0.1194   0.1598   0.1768   0.2195   0.2635   0.3431
     0.3589   0.3998   0.4259   0.4776   0.5088   0.5842   0.6444   0.6763
     0.7000   0.7436   0.8225   0.8570   0.9467   0.9592   1.0384   1.1099
     1.2751   2.1579   2.6582   3.1740   3.2981   3.9324   4.3755   4.8151
     5.1667   5.8290   6.5259   7.0439   7.5137   7.9364   8.4143   8.9680
     9.4517   9.8645

          k = 0.1250-0.0777 0.0000 ( 21491 PWs)   bands (ev):

   -43.5147  -3.1198  -2.7141  -2.1703  -2.0088  -2.0037  -1.9325  -1.8971
    -1.7870  -1.7719  -1.7274  -1.6006  -1.4582  -1.4276  -1.3438  -1.1995
    -1.1250  -1.0530  -0.9692  -0.9222  -0.8857  -0.8043  -0.7566  -0.7051
    -0.6682  -0.6203  -0.6054  -0.5684  -0.5504  -0.4930  -0.4809  -0.4255
    -0.3825  -0.3648  -0.3450  -0.3034  -0.2425  -0.1839  -0.1680  -0.1501
    -0.1118  -0.0782  -0.0470  -0.0311  -0.0067   0.0408   0.1022   0.1486
     0.2157   0.2508   0.3822   0.4317   0.4975   0.5495   0.7069   0.7547
     0.7817   0.8772   0.9308   0.9619   0.9982   1.0051   1.0301   1.1003
     1.1496   1.9377   3.0273   3.9623   4.1083   4.5378   4.8685   5.4244
     6.3601   6.7141   7.2218   7.3819   7.8311   8.1546   8.6513   8.7723
     8.9038   9.1265

          k = 0.2500-0.0000 0.0000 ( 21417 PWs)   bands (ev):

   -43.5111  -2.4620  -2.1857  -1.8266  -1.8247  -1.8103  -1.7776  -1.6852
    -1.6703  -1.5823  -1.5111  -1.4833  -1.4731  -1.4248  -1.2476  -1.2321
    -1.1356  -1.0326  -0.9966  -0.9654  -0.9202  -0.8325  -0.8263  -0.8002
    -0.7794  -0.7720  -0.7174  -0.6202  -0.5996  -0.5567  -0.5513  -0.4943
    -0.4774  -0.4420  -0.4030  -0.3276  -0.2783  -0.2245  -0.1400  -0.1140
    -0.0776  -0.0366  -0.0266   0.0759   0.1723   0.2204   0.2434   0.2941
     0.3214   0.3311   0.3561   0.4602   0.4892   0.6483   0.7141   0.7548
     0.8707   0.9698   0.9851   1.0054   1.0175   1.0456   1.0613   1.1250
     1.6846   2.7553   3.8745   4.8861   5.8609   6.5229   7.0382   7.3740
     7.8209   8.0422   8.1397   8.2055   8.4408   8.6299   8.8646   8.9905
     9.1908   9.4039

          k = 0.2500 0.0777 0.0000 ( 21426 PWs)   bands (ev):

   -43.5112  -2.3889  -2.1520  -1.8585  -1.8025  -1.7818  -1.7390  -1.6825
    -1.6360  -1.5954  -1.5359  -1.4371  -1.3923  -1.3370  -1.2482  -1.2160
    -1.1619  -1.0798  -1.0599  -1.0243  -0.9854  -0.9516  -0.8245  -0.8113
    -0.7514  -0.6941  -0.6522  -0.6408  -0.6008  -0.5336  -0.4837  -0.4768
    -0.4660  -0.4036  -0.3773  -0.3489  -0.2739  -0.2156  -0.1289  -0.0963
    -0.0871  -0.0222   0.0575   0.1553   0.1876   0.2251   0.2475   0.2860
     0.3069   0.3412   0.3681   0.4831   0.5184   0.6507   0.7589   0.7666
     0.8381   0.8628   0.9007   0.9549   1.0138   1.0434   1.0543   1.0805
     1.7441   2.8362   3.9679   4.9727   5.3641   5.7304   6.0328   6.4373
     7.2408   7.4871   8.0772   8.2234   8.6733   9.0018   9.3055   9.4128
     9.5123   9.5519

          k = 0.2500 0.1554 0.0000 ( 21427 PWs)   bands (ev):

   -43.5112  -2.1936  -2.0575  -1.8847  -1.7874  -1.7011  -1.6614  -1.6357
    -1.6025  -1.5403  -1.4806  -1.3983  -1.3383  -1.3163  -1.2589  -1.2149
    -1.2028  -1.1296  -1.0753  -1.0405  -0.9416  -0.9183  -0.8955  -0.8276
    -0.7746  -0.7511  -0.6899  -0.6778  -0.5925  -0.5590  -0.5052  -0.4044
    -0.4008  -0.3636  -0.3330  -0.3013  -0.2426  -0.1745  -0.1114  -0.0852
    -0.0700   0.0479   0.0654   0.1540   0.2189   0.2877   0.3295   0.3795
     0.4120   0.4346   0.4783   0.5398   0.5492   0.6056   0.6582   0.6747
     0.7241   0.8084   0.8590   0.8902   0.9472   1.0799   1.0950   1.1192
     1.9281   3.0774   3.8695   4.2047   4.2831   4.8633   5.2915   5.6914
     6.4174   6.7030   7.5619   7.8607   8.3954   8.7537   9.1910   9.7987
     9.8555  10.0788

          k = 0.2500 0.2331 0.0000 ( 21410 PWs)   bands (ev):

   -43.5112  -1.9532  -1.9095  -1.8355  -1.7549  -1.7103  -1.6680  -1.5969
    -1.5676  -1.5128  -1.4439  -1.4042  -1.3232  -1.2969  -1.2735  -1.2166
    -1.1656  -1.1136  -1.0342  -1.0122  -0.9641  -0.9290  -0.8884  -0.8297
    -0.8054  -0.7620  -0.6783  -0.6404  -0.5932  -0.5591  -0.4516  -0.3711
    -0.3510  -0.3133  -0.2863  -0.2745  -0.2313  -0.1911  -0.1467  -0.1242
    -0.0595  -0.0360   0.0230   0.0637   0.1329   0.2167   0.2351   0.2913
     0.3401   0.4005   0.5289   0.6196   0.6510   0.7309   0.7682   0.8417
     0.8726   0.9225   0.9481   0.9603   1.0431   1.1261   1.1498   1.4520
     2.3201   2.6165   2.8946   3.4736   3.5850   4.4077   4.7154   5.4789
     5.7163   6.5450   6.9020   7.6095   8.0170   8.9482   9.6418   9.7400
    10.1664  10.4595

          k = 0.2500-0.3108 0.0000 ( 21358 PWs)   bands (ev):

   -43.5111  -1.7888  -1.7742  -1.7612  -1.7498  -1.6975  -1.6838  -1.6727
    -1.6651  -1.5904  -1.5266  -1.3304  -1.2232  -1.2191  -1.1853  -1.1689
    -1.1261  -1.1172  -1.0820  -1.0614  -1.0498  -1.0144  -0.9351  -0.8588
    -0.7367  -0.6962  -0.6168  -0.5484  -0.5171  -0.4729  -0.4695  -0.4251
    -0.3466  -0.3303  -0.2966  -0.2239  -0.1779  -0.1650  -0.1345  -0.1195
    -0.1032  -0.0719  -0.0347   0.0008   0.0205   0.0435   0.0694   0.2025
     0.2571   0.4165   0.5939   0.6410   0.6670   0.7517   0.7691   0.9321
     0.9598   1.0583   1.0641   1.0664   1.0868   1.5427   1.5982   1.7696
     1.8309   2.2730   2.3677   3.1540   3.2766   4.3083   4.4703   5.3181
     5.6831   6.2786   6.8234   7.5327   7.8277   9.2724   9.5720   9.9621
    10.2328  10.3542

          k = 0.2500-0.2331 0.0000 ( 21410 PWs)   bands (ev):

   -43.5112  -1.9532  -1.9095  -1.8355  -1.7549  -1.7103  -1.6680  -1.5969
    -1.5676  -1.5128  -1.4439  -1.4042  -1.3232  -1.2969  -1.2735  -1.2166
    -1.1656  -1.1136  -1.0342  -1.0122  -0.9641  -0.9290  -0.8884  -0.8297
    -0.8054  -0.7620  -0.6783  -0.6404  -0.5932  -0.5591  -0.4516  -0.3711
    -0.3510  -0.3133  -0.2863  -0.2745  -0.2313  -0.1911  -0.1467  -0.1242
    -0.0595  -0.0360   0.0230   0.0637   0.1329   0.2167   0.2351   0.2913
     0.3401   0.4005   0.5289   0.6196   0.6510   0.7309   0.7682   0.8417
     0.8726   0.9225   0.9481   0.9603   1.0431   1.1261   1.1498   1.4520
     2.3201   2.6165   2.8946   3.4736   3.5850   4.4077   4.7154   5.4789
     5.7163   6.5450   6.9020   7.6095   8.0170   8.9482   9.6418   9.7403
    10.1664  10.4596

          k = 0.2500-0.1554 0.0000 ( 21427 PWs)   bands (ev):

   -43.5112  -2.1936  -2.0575  -1.8847  -1.7874  -1.7011  -1.6614  -1.6357
    -1.6025  -1.5403  -1.4806  -1.3983  -1.3383  -1.3163  -1.2589  -1.2149
    -1.2028  -1.1296  -1.0753  -1.0405  -0.9416  -0.9183  -0.8955  -0.8276
    -0.7746  -0.7511  -0.6899  -0.6778  -0.5925  -0.5590  -0.5052  -0.4044
    -0.4008  -0.3636  -0.3330  -0.3013  -0.2426  -0.1745  -0.1114  -0.0852
    -0.0700   0.0479   0.0654   0.1540   0.2189   0.2877   0.3295   0.3795
     0.4120   0.4346   0.4783   0.5398   0.5492   0.6056   0.6582   0.6747
     0.7241   0.8084   0.8590   0.8902   0.9472   1.0799   1.0950   1.1192
     1.9281   3.0774   3.8695   4.2047   4.2831   4.8633   5.2915   5.6914
     6.4174   6.7030   7.5619   7.8607   8.3954   8.7537   9.1910   9.7987
     9.8555  10.0787

          k = 0.2500-0.0777 0.0000 ( 21426 PWs)   bands (ev):

   -43.5112  -2.3889  -2.1520  -1.8585  -1.8025  -1.7818  -1.7390  -1.6825
    -1.6360  -1.5954  -1.5359  -1.4371  -1.3923  -1.3370  -1.2482  -1.2160
    -1.1619  -1.0798  -1.0599  -1.0243  -0.9854  -0.9516  -0.8246  -0.8113
    -0.7514  -0.6941  -0.6522  -0.6408  -0.6008  -0.5336  -0.4837  -0.4768
    -0.4660  -0.4036  -0.3773  -0.3489  -0.2739  -0.2156  -0.1289  -0.0963
    -0.0871  -0.0222   0.0575   0.1553   0.1876   0.2251   0.2475   0.2860
     0.3069   0.3412   0.3681   0.4831   0.5184   0.6507   0.7589   0.7666
     0.8381   0.8628   0.9007   0.9549   1.0137   1.0434   1.0543   1.0805
     1.7441   2.8362   3.9679   4.9727   5.3641   5.7304   6.0328   6.4373
     7.2408   7.4871   8.0772   8.2234   8.6733   9.0018   9.3055   9.4128
     9.5123   9.5519

          k = 0.3750-0.0000 0.0000 ( 21365 PWs)   bands (ev):

   -43.5076  -2.0520  -2.0399  -1.8643  -1.8635  -1.8129  -1.8092  -1.7847
    -1.7797  -1.7332  -1.6906  -1.6127  -1.5798  -1.4747  -1.4625  -1.4107
    -1.2872  -1.2266  -1.0368  -0.9411  -0.8090  -0.7936  -0.7809  -0.7434
    -0.7129  -0.7022  -0.6566  -0.5778  -0.5694  -0.4503  -0.4277  -0.3862
    -0.3588  -0.3462  -0.2863  -0.2682  -0.2208  -0.1974  -0.1633  -0.0847
    -0.0350   0.1696   0.2293   0.3144   0.4810   0.5049   0.6518   0.6786
     0.7240   0.7704   0.7892   0.8773   0.8839   0.8979   0.9711   0.9976
     1.0006   1.0252   1.0778   1.0959   1.1465   1.4273   1.5317   1.9827
     2.8811   4.0068   5.0356   5.9572   6.1232   6.6704   7.1527   7.4242
     7.8875   8.4245   8.6216   8.7828   8.9189   8.9705   9.1200   9.4246
     9.4999   9.8570

          k = 0.3750 0.0777 0.0000 ( 21373 PWs)   bands (ev):

   -43.5076  -2.0634  -2.0443  -1.9628  -1.9535  -1.8737  -1.8538  -1.8027
    -1.7649  -1.6900  -1.5998  -1.5022  -1.4339  -1.4263  -1.3846  -1.3185
    -1.2673  -1.1837  -1.0454  -0.9785  -0.9172  -0.8910  -0.8696  -0.8118
    -0.7895  -0.7193  -0.6903  -0.6525  -0.6354  -0.5522  -0.4875  -0.4493
    -0.3604  -0.3163  -0.2653  -0.2053  -0.1216  -0.0461  -0.0238   0.0752
     0.1484   0.2508   0.3012   0.3865   0.5234   0.5640   0.6544   0.7105
     0.7593   0.7763   0.7973   0.8527   0.8552   0.8738   0.9134   0.9266
     0.9695   1.0241   1.0341   1.0358   1.0738   1.4781   1.5483   1.9873
     2.9219   4.0734   5.1126   6.0398   6.2280   6.7017   6.9577   7.0706
     7.1653   7.4694   7.6242   7.9861   8.8395   9.1235   9.3627   9.6316
     9.7589  10.0974

          k = 0.3750 0.1554 0.0000 ( 21345 PWs)   bands (ev):

   -43.5076  -2.1433  -2.1291  -1.9835  -1.9595  -1.8507  -1.8476  -1.7547
    -1.7065  -1.5867  -1.5621  -1.4928  -1.3556  -1.3425  -1.3070  -1.2632
    -1.2584  -1.2165  -1.1715  -1.1666  -1.0899  -1.0563  -0.9396  -0.8728
    -0.8430  -0.7756  -0.6840  -0.6234  -0.5415  -0.5235  -0.4402  -0.3944
    -0.3093  -0.1906  -0.1279  -0.0844  -0.0018   0.0304   0.0455   0.2116
     0.3135   0.3843   0.4661   0.5139   0.5611   0.6218   0.6297   0.6566
     0.6850   0.7083   0.7507   0.7902   0.8244   0.8442   0.8863   0.9046
     0.9339   0.9613   1.0163   1.0891   1.1154   1.5971   1.6613   2.1004
     3.0926   4.2746   5.2837   5.3724   5.6237   5.9653   6.3127   6.4878
     6.5612   6.9030   7.4473   8.0779   8.7349   8.9884   9.2684   9.4414
     9.8002   9.9486

          k = 0.3750 0.2331 0.0000 ( 21344 PWs)   bands (ev):

   -43.5076  -2.1305  -2.1196  -1.9557  -1.9306  -1.8165  -1.8134  -1.7329
    -1.6648  -1.6158  -1.5946  -1.5055  -1.4771  -1.4382  -1.4280  -1.3965
    -1.3475  -1.2258  -1.2011  -1.1461  -1.1178  -1.0486  -0.9505  -0.8745
    -0.7963  -0.6926  -0.6150  -0.4855  -0.4348  -0.3943  -0.3103  -0.2944
    -0.2460  -0.1530  -0.0441   0.0087   0.0896   0.1456   0.2280   0.2372
     0.2828   0.3087   0.3264   0.3424   0.3851   0.4480   0.5179   0.5823
     0.7289   0.7672   0.8169   0.8327   0.8890   0.9153   0.9166   0.9488
     0.9680   0.9909   1.0396   1.1098   1.1357   1.9914   2.0928   2.5675
     3.4732   3.9652   4.1710   4.5692   4.7569   5.4428   5.7281   6.3048
     6.7675   6.9295   7.5361   8.4123   8.6944   8.9937   9.1038   9.4666
     9.5845   9.8205

          k = 0.3750-0.3108 0.0000 ( 21340 PWs)   bands (ev):

   -43.5076  -2.0098  -1.9946  -1.9936  -1.9884  -1.8457  -1.8120  -1.8096
    -1.7928  -1.6931  -1.6093  -1.4839  -1.4676  -1.4176  -1.3911  -1.3507
    -1.3431  -1.2760  -1.2243  -1.1908  -1.1252  -1.0806  -0.9496  -0.9183
    -0.8108  -0.5498  -0.5212  -0.4376  -0.4025  -0.2446  -0.2065  -0.1818
    -0.1405  -0.0633  -0.0252  -0.0098   0.0111   0.0241   0.0520   0.1075
     0.1437   0.2767   0.2909   0.3358   0.3667   0.5018   0.6093   0.6849
     0.7148   0.7535   0.7563   0.8335   0.9079   0.9541   0.9773   0.9931
     1.0014   1.0258   1.0273   1.0530   1.0711   2.7286   2.8130   2.9100
     3.0126   3.3738   3.5423   4.2207   4.4510   5.2482   5.6229   6.1699
     6.7808   7.1272   7.7448   8.3913   8.6524   9.0326   9.1235   9.3307
     9.5582   9.6068

          k = 0.3750-0.2331 0.0000 ( 21344 PWs)   bands (ev):

   -43.5076  -2.1305  -2.1196  -1.9557  -1.9306  -1.8165  -1.8134  -1.7329
    -1.6648  -1.6158  -1.5946  -1.5055  -1.4771  -1.4382  -1.4280  -1.3965
    -1.3475  -1.2258  -1.2011  -1.1461  -1.1178  -1.0486  -0.9505  -0.8745
    -0.7963  -0.6926  -0.6150  -0.4855  -0.4348  -0.3943  -0.3103  -0.2944
    -0.2460  -0.1530  -0.0441   0.0087   0.0896   0.1456   0.2280   0.2372
     0.2828   0.3087   0.3264   0.3424   0.3851   0.4480   0.5179   0.5823
     0.7289   0.7672   0.8169   0.8327   0.8890   0.9153   0.9166   0.9488
[...]
     9.7324  10.0246

          k = 0.3750-0.0777 0.0000 ( 21373 PWs)   bands (ev):

   -43.3897  -2.1279  -2.1228  -2.0245  -2.0221  -1.9423  -1.9308  -1.8208
    -1.7776  -1.6831  -1.6790  -1.5253  -1.5051  -1.4796  -1.4280  -1.3943
    -1.3332  -1.1865  -1.1270  -0.9988  -0.9563  -0.9358  -0.8862  -0.8572
    -0.8166  -0.7332  -0.7115  -0.6944  -0.6434  -0.5090  -0.4985  -0.4483
    -0.4180  -0.3333  -0.2851  -0.1870  -0.1558  -0.0999   0.0489   0.0704
     0.0931   0.1819   0.3451   0.4129   0.4417   0.5414   0.5795   0.6822
     0.7294   0.7474   0.7641   0.8115   0.8196   0.8457   0.8779   0.8952
     0.9288   0.9960   1.0185   1.0232   1.0337   1.4642   1.5053   1.9445
     2.8898   4.1015   5.2921   6.0467   6.1799   6.7310   6.8367   6.9873
     7.0861   7.4981   7.8946   8.3224   8.7630   9.1800   9.2231   9.7509
     9.8337  10.1852

          k =-0.5000 0.0000 0.0000 ( 21294 PWs)   bands (ev):

   -43.3882  -2.2214  -2.2206  -1.9463  -1.9330  -1.9266  -1.9241  -1.8921
    -1.8829  -1.8481  -1.8254  -1.7756  -1.6762  -1.6598  -1.5567  -1.4948
    -1.4626  -1.3391  -1.1454  -1.1178  -0.8331  -0.8194  -0.7962  -0.7751
    -0.7675  -0.6798  -0.5653  -0.4785  -0.4607  -0.4321  -0.4230  -0.4044
    -0.3535  -0.2739  -0.2677  -0.2526  -0.2159  -0.1605  -0.0121   0.0876
     0.1211   0.2622   0.4131   0.4634   0.4895   0.5366   0.5933   0.7467
     0.8095   0.9394   0.9642   0.9920   1.0073   1.0103   1.0393   1.0489
     1.0597   1.0762   1.0792   1.0893   1.1041   3.3431   3.3648   3.5020
     3.6055   3.8514   4.1993   4.7523   5.0442   6.1209   6.3888   7.2512
     7.8000   8.3348   8.5489   9.8868   9.9256  10.3997  10.4336  10.5500
    10.5744  10.6836

          k =-0.5000 0.0777 0.0000 ( 21286 PWs)   bands (ev):

   -43.3882  -2.1998  -2.1974  -2.1456  -2.1451  -1.9833  -1.9658  -1.8824
    -1.8748  -1.7735  -1.6283  -1.6092  -1.5861  -1.5416  -1.5369  -1.4674
    -1.3832  -1.2608  -1.1176  -1.0558  -1.0017  -1.0004  -0.9034  -0.8290
    -0.8025  -0.7624  -0.7425  -0.6906  -0.6320  -0.5507  -0.3590  -0.3122
    -0.2560  -0.2357  -0.2174  -0.1983  -0.1712   0.0628   0.1014   0.1217
     0.2951   0.3083   0.4500   0.5007   0.5810   0.6394   0.7259   0.7667
     0.8085   0.8619   0.8889   0.9285   0.9325   0.9941   0.9954   1.0407
     1.0638   1.0748   1.0770   1.0867   1.0899   3.4201   3.4405   3.5533
     3.6497   3.8770   4.2447   4.7691   5.0975   6.1256   6.3551   7.2420
     7.7247   8.3633   8.3980   9.2344   9.2607   9.3889   9.5306   9.9137
     9.9683  10.0697

          k =-0.5000 0.1554 0.0000 ( 21260 PWs)   bands (ev):

   -43.3881  -2.3005  -2.2991  -2.0943  -2.0878  -2.0607  -2.0439  -1.8509
    -1.7766  -1.7205  -1.6855  -1.5294  -1.4436  -1.3970  -1.3787  -1.3449
    -1.3299  -1.3007  -1.2821  -1.2385  -1.2105  -1.1062  -1.0645  -0.9755
    -0.9074  -0.7820  -0.7479  -0.6922  -0.6388  -0.6242  -0.2681  -0.2349
    -0.1370  -0.1235  -0.0820  -0.0377  -0.0082   0.1274   0.1830   0.2920
     0.3709   0.3773   0.5525   0.5553   0.5914   0.6454   0.6655   0.7177
     0.7259   0.7607   0.8051   0.8675   0.8806   1.0128   1.0363   1.0685
     1.0816   1.1103   1.1302   1.1379   1.1408   3.6565   3.6789   3.7389
     3.8117   4.0084   4.3714   4.8146   5.1941   6.0760   6.1339   6.9443
     6.9980   7.5019   8.3040   8.3173   8.4682   8.6892   8.9621   9.1923
     9.3510   9.4859

          k =-0.5000 0.2331 0.0000 ( 21256 PWs)   bands (ev):

   -43.3881  -2.2974  -2.2972  -2.0646  -2.0563  -2.0173  -2.0119  -1.8125
    -1.7840  -1.7342  -1.6355  -1.6231  -1.6143  -1.5589  -1.5412  -1.4377
    -1.4001  -1.3895  -1.3847  -1.2076  -1.1615  -1.0690  -1.0361  -0.9431
    -0.8115  -0.7980  -0.6439  -0.5842  -0.4219  -0.3624  -0.3205  -0.1827
    -0.1076  -0.0305  -0.0021   0.0649   0.1392   0.2187   0.2200   0.2934
     0.3030   0.3581   0.3731   0.3969   0.4005   0.5453   0.6406   0.7154
     0.8192   0.8631   0.8703   0.9159   0.9416   1.0278   1.0305   1.1131
     1.1237   1.1452   1.1501   1.1544   1.1804   4.0597   4.1294   4.1433
     4.1767   4.3558   4.5333   4.8613   5.1234   5.5398   5.6620   5.8600
     6.0018   7.0450   7.6506   7.8433   8.3484   8.4668   8.6868   9.0117
     9.1315   9.2630

          k =-0.5000-0.3108 0.0000 ( 21304 PWs)   bands (ev):

   -43.3882  -2.1803  -2.1781  -2.1621  -2.1601  -1.9396  -1.9361  -1.9293
    -1.9288  -1.7413  -1.6816  -1.6728  -1.5672  -1.5383  -1.5223  -1.5063
    -1.4965  -1.3778  -1.3307  -1.3095  -1.1520  -1.1002  -1.0525  -0.9107
    -0.8812  -0.6350  -0.4747  -0.3545  -0.2681  -0.2185  -0.2046  -0.1757
    -0.1223  -0.0338  -0.0322  -0.0136   0.0216   0.0363   0.0396   0.0649
     0.1752   0.3800   0.4099   0.4252   0.4863   0.7411   0.8267   0.8409
     0.8709   0.8781   0.9360   0.9631   1.0090   1.0090   1.0239   1.0486
     1.0486   1.0636   1.0709   1.1411   1.1758   4.4409   4.6063   4.7179
     4.7277   4.7993   4.8011   4.8233   4.8356   4.8784   4.8971   4.9688
     5.4030   7.1205   7.2873   7.6854   8.2345   8.4059   8.7117   8.9164
     9.0325   9.2052

     the Fermi energy is     4.0099 ev

!    total energy              =   -1026.40536915 Ry
     estimated scf accuracy    <          8.0E-09 Ry
     smearing contrib. (-TS)   =      -0.00186893 Ry
     internal energy E=F+TS    =   -1026.40350022 Ry

     The total energy is F=E-TS. E is the sum of the following terms:
     one-electron contribution =  -14541.40219186 Ry
     hartree contribution      =    7374.56812535 Ry
     xc contribution           =    -271.60838924 Ry
     ewald contribution        =    6412.41332582 Ry
     DFT-D3 Dispersion         =      -0.37437029 Ry

     convergence has been achieved in   8 iterations

     negative rho (up, down):  2.195E-05 0.000E+00

     Forces acting on atoms (cartesian axes, Ry/au):

     atom    1 type  2   force =    -0.00000033    0.00054361    0.00031013
     atom    2 type  2   force =     0.00000046   -0.00031607   -0.00034805
     atom    3 type  2   force =     0.00000022    0.00099950   -0.00089864
     atom    4 type  2   force =    -0.00000028    0.00030835   -0.00056380
     atom    5 type  2   force =     0.00000036   -0.00022957    0.00035720
     atom    6 type  2   force =     0.00000030   -0.00028075    0.00033174
     atom    7 type  2   force =    -0.00000037    0.00031546   -0.00016999
     atom    8 type  2   force =    -0.00000025    0.00067554   -0.00017554
     atom    9 type  2   force =     0.00000018   -0.00029264   -0.00012564
     atom   10 type  2   force =     0.00000049   -0.00016223    0.00076243
     atom   11 type  2   force =     0.00000041   -0.00072949    0.00067095
     atom   12 type  2   force =    -0.00000106   -0.00089048   -0.00042651
     atom   13 type  1   force =    -0.00000012    0.00005877    0.00027571
     The non-local contrib.  to forces
     atom    1 type  2   force =     0.00000168    0.00012927    0.00743285
     atom    2 type  2   force =    -0.00000180   -0.00133183    0.04878936
     atom    3 type  2   force =     0.00000020    0.00096316    0.02055540
     atom    4 type  2   force =    -0.00000050    0.00004778    0.00379125
     atom    5 type  2   force =    -0.00000003   -0.00005058    0.00095864
     atom    6 type  2   force =    -0.00000007   -0.00092760   -0.00104003
     atom    7 type  2   force =    -0.00000020    0.00045609   -0.00331571
     atom    8 type  2   force =    -0.00000015    0.00037014   -0.00832987
     atom    9 type  2   force =     0.00000015    0.00003608   -0.00994276
     atom   10 type  2   force =     0.00000020    0.00079885   -0.02929251
     atom   11 type  2   force =     0.00000012   -0.00087948   -0.01595873
     atom   12 type  2   force =    -0.00000054   -0.00037496   -0.10056493
     atom   13 type  1   force =     0.00000007    0.00093806    0.06333573
     The ionic contribution  to forces
     atom    1 type  2   force =    -0.00000958    0.04197544  172.66486430
     atom    2 type  2   force =     0.00001447   -0.07996755  150.42447047
     atom    3 type  2   force =     0.00000368    0.08330600  109.49851819
     atom    4 type  2   force =    -0.00001148   -0.02890309   85.22488349
     atom    5 type  2   force =     0.00000871    0.01774541   41.51358654
     atom    6 type  2   force =     0.00000612   -0.03787403   18.35233221
     atom    7 type  2   force =    -0.00001103    0.02644241  -26.45422171
     atom    8 type  2   force =    -0.00000306    0.01732633  -48.94903866
     atom    9 type  2   force =     0.00000388   -0.02812891  -94.45219946
     atom   10 type  2   force =     0.00001774    0.02609018 -115.69702068
     atom   11 type  2   force =     0.00002036   -0.04504897 -163.27441515
     atom   12 type  2   force =    -0.00003867   -0.01330742 -178.87529476
     atom   13 type  1   force =    -0.00000114    0.02034420   50.02353523
     The local contribution  to forces
     atom    1 type  2   force =     0.00000736   -0.04145940 -172.66668166
     atom    2 type  2   force =    -0.00001198    0.08087544 -150.46792900
     atom    3 type  2   force =    -0.00000360   -0.08303511 -109.51547161
     atom    4 type  2   force =     0.00001153    0.02916674  -85.22670492
     atom    5 type  2   force =    -0.00000831   -0.01794368  -41.51377012
     atom    6 type  2   force =    -0.00000566    0.03845318  -18.35030290
     atom    7 type  2   force =     0.00001078   -0.02653344   26.45672916
     atom    8 type  2   force =     0.00000288   -0.01689387   48.95696766
     atom    9 type  2   force =    -0.00000384    0.02772039   94.45857593
     atom   10 type  2   force =    -0.00001730   -0.02700351  115.72258035
     atom   11 type  2   force =    -0.00002004    0.04492472  163.28232693
     atom   12 type  2   force =     0.00003789    0.01265595  178.96316371
     atom   13 type  1   force =     0.00000086   -0.02118661  -50.08491864
     The core correction contribution to forces
     atom    1 type  2   force =     0.00000010   -0.00000245   -0.00201014
     atom    2 type  2   force =    -0.00000011    0.00004797    0.00069968
     atom    3 type  2   force =    -0.00000002   -0.00015147   -0.00083738
     atom    4 type  2   force =     0.00000004   -0.00001714   -0.00028852
     atom    5 type  2   force =    -0.00000004    0.00000693    0.00002639
     atom    6 type  2   force =    -0.00000003    0.00005927   -0.00033399
     atom    7 type  2   force =     0.00000005   -0.00005776    0.00028078
     atom    8 type  2   force =     0.00000000   -0.00006785   -0.00016634
     atom    9 type  2   force =    -0.00000001    0.00005668    0.00082347
     atom   10 type  2   force =    -0.00000007   -0.00001564    0.00009790
     atom   11 type  2   force =    -0.00000006    0.00012474    0.00361115
     atom   12 type  2   force =     0.00000014    0.00009532    0.00705504
     atom   13 type  1   force =     0.00000000    0.00000000    0.00000000
     The Hubbard contrib.    to forces
     atom    1 type  2   force =     0.00000000    0.00000000    0.00000000
     atom    2 type  2   force =     0.00000000    0.00000000    0.00000000
     atom    3 type  2   force =     0.00000000    0.00000000    0.00000000
     atom    4 type  2   force =     0.00000000    0.00000000    0.00000000
     atom    5 type  2   force =     0.00000000    0.00000000    0.00000000
     atom    6 type  2   force =     0.00000000    0.00000000    0.00000000
     atom    7 type  2   force =     0.00000000    0.00000000    0.00000000
     atom    8 type  2   force =     0.00000000    0.00000000    0.00000000
     atom    9 type  2   force =     0.00000000    0.00000000    0.00000000
     atom   10 type  2   force =     0.00000000    0.00000000    0.00000000
     atom   11 type  2   force =     0.00000000    0.00000000    0.00000000
     atom   12 type  2   force =     0.00000000    0.00000000    0.00000000
     atom   13 type  1   force =     0.00000000    0.00000000    0.00000000
     The SCF correction term to forces
     atom    1 type  2   force =     0.00000003   -0.00004030   -0.00000701
     atom    2 type  2   force =    -0.00000003    0.00001010    0.00000290
     atom    3 type  2   force =    -0.00000004    0.00000631   -0.00000087
     atom    4 type  2   force =     0.00000005   -0.00000279   -0.00003442
     atom    5 type  2   force =     0.00000005    0.00001377    0.00000059
     atom    6 type  2   force =    -0.00000006   -0.00003121    0.00005471
     atom    7 type  2   force =    -0.00000003    0.00003081   -0.00007126
     atom    8 type  2   force =     0.00000005   -0.00000517   -0.00012621
     atom    9 type  2   force =    -0.00000002   -0.00001816   -0.00006556
     atom   10 type  2   force =    -0.00000004    0.00001912   -0.00001950
     atom   11 type  2   force =     0.00000003   -0.00000060    0.00017731
     atom   12 type  2   force =     0.00000001   -0.00000355    0.00019302
     atom   13 type  1   force =    -0.00000001    0.00002344    0.00000086

     DFT-D3 dispersion contribution to forces:
     atom    1 type  2   force =     0.00000006   -0.00005924   -0.00328466
     atom    2 type  2   force =    -0.00000012    0.00004950   -0.00637790
     atom    3 type  2   force =    -0.00000003   -0.00008969   -0.00365882
     atom    4 type  2   force =     0.00000005    0.00001655   -0.00220713
     atom    5 type  2   force =    -0.00000004   -0.00000171   -0.00044129
     atom    6 type  2   force =    -0.00000003    0.00003934   -0.00037471
     atom    7 type  2   force =     0.00000004   -0.00002295    0.00043230
     atom    8 type  2   force =     0.00000000   -0.00005435    0.00052144
     atom    9 type  2   force =    -0.00000001    0.00004100    0.00268630
     atom   10 type  2   force =    -0.00000006   -0.00005153    0.00442043
     atom   11 type  2   force =    -0.00000002    0.00014981    0.00493300
     atom   12 type  2   force =     0.00000008    0.00004389    0.00502496
     atom   13 type  1   force =     0.00000007   -0.00006061   -0.00167392

     Total force =     0.002562     Total SCF correction =     0.000322
     SCF correction compared to forces is large: reduce conv_thr to get better values


     Computing stress (Cartesian axis) and pressure


     negative rho (up, down):  2.195E-05 0.000E+00
          total   stress  (Ry/bohr**3)                   (kbar)     P=      -14.47
  -0.00011973   0.00000000   0.00000000          -17.61        0.00        0.00
   0.00000000  -0.00010876   0.00001109            0.00      -16.00        1.63
   0.00000000   0.00001109  -0.00006661            0.00        1.63       -9.80

     Energy error            =      2.2E-05 Ry
     Gradient error          =      1.0E-03 Ry/Bohr

     bfgs converged in  51 scf cycles and  50 bfgs steps
     (criteria: energy <  1.0E-04 Ry, force <  1.0E-03 Ry/Bohr)

     End of BFGS Geometry Optimization

     Final energy             =   -1026.4053691469 Ry

     File ./Ag_mp-10597_100_hollow_0/Ag_mp-10597_100_hollow_0.bfgs deleted, as requested
Begin final coordinates

ATOMIC_POSITIONS (angstrom)
Ag            0.7305792841        3.3321917481       23.6129853740
Ag            2.1917373682        0.9908931224       22.5066118189
Ag            2.1917232782        3.3463618290       20.9369378911
Ag            0.7305825029        1.0078527084       20.0362194239
Ag            0.7305696303        3.3816498399       18.4184430961
Ag            2.1917214248        1.0441401666       17.5657798809
Ag            2.1917308032        3.4131978745       15.9272457730
Ag            0.7305785251        1.0758727052       15.0957069931
Ag            0.7305795979        3.4608756188       13.4328279198
Ag            2.1917272820        1.1245889830       12.6216662360
Ag            2.1917359790        3.5111158745       10.8815712895
Ag            0.7305951092        1.1668325150       10.1619033331
Li            2.1916713889        5.6642649782       24.9750377283
End final coordinates



     Writing all to output data dir ./Ag_mp-10597_100_hollow_0/Ag_mp-10597_100_hollow_0.save/

     init_run     :      7.84s CPU      8.46s WALL (       1 calls)
     electrons    :    590.33s CPU    648.24s WALL (      51 calls)
     update_pot   :     13.08s CPU     13.93s WALL (      50 calls)
     forces       :     15.36s CPU     17.46s WALL (      51 calls)
     force_dftd3  :      0.55s CPU      0.89s WALL (      51 calls)
     stress       :     96.40s CPU     98.68s WALL (      51 calls)
     stres_dftd3  :      0.40s CPU      0.56s WALL (      51 calls)

     Called by init_run:
     wfcinit      :      0.66s CPU      1.05s WALL (       1 calls)
     potinit      :      1.53s CPU      1.55s WALL (       1 calls)
     hinit0       :      5.53s CPU      5.70s WALL (       1 calls)

     Called by electrons:
     c_bands      :    522.57s CPU    565.94s WALL (     500 calls)
     sum_band     :     57.20s CPU     62.98s WALL (     500 calls)
     v_of_rho     :      4.88s CPU      6.65s WALL (     518 calls)
     newd         :      3.30s CPU      3.48s WALL (     518 calls)
     mix_rho      :      0.69s CPU      0.71s WALL (     500 calls)
     energy_dftd3 :      0.15s CPU      0.15s WALL (      51 calls)

     Called by c_bands:
     init_us_2    :      2.17s CPU      2.37s WALL (    9927 calls)
     init_us_2:cp :      2.15s CPU      2.35s WALL (    9927 calls)
     cegterg      :    496.23s CPU    521.86s WALL (    4500 calls)

     Called by *egterg:
     cdiaghg      :    151.96s CPU    153.06s WALL (   18049 calls)
     h_psi        :    257.48s CPU    275.78s WALL (   18805 calls)
     s_psi        :     18.06s CPU     18.31s WALL (   18805 calls)
     g_psi        :      0.80s CPU      0.81s WALL (   14296 calls)

     Called by h_psi:
     h_psi:calbec :     27.16s CPU     32.24s WALL (   18805 calls)
     vloc_psi     :    211.13s CPU    224.00s WALL (   18805 calls)
     add_vuspsi   :     18.23s CPU     18.57s WALL (   18805 calls)

     General routines
     calbec       :     44.88s CPU     52.03s WALL (   25600 calls)
     fft          :     11.66s CPU     13.99s WALL (    7990 calls)
     ffts         :      1.68s CPU      2.05s WALL (    1018 calls)
     fftw         :    228.08s CPU    241.94s WALL ( 2315462 calls)
     interpolate  :      1.82s CPU      2.06s WALL (     518 calls)

     Parallel routines

     PWSCF        :  12m 5.01s CPU  13m11.30s WALL


   This run was terminated on:  11:18:25  25Jul2025            

=------------------------------------------------------------------------------=
   JOB DONE.
=------------------------------------------------------------------------------=
[1753453106.179052] [rome34:2931011:0]           flush.c:57   UCX  ERROR req 0x2ee6980: error during flush: Connection reset by remote peer
[1753453106.179492] [rome34:2931011:0]           flush.c:57   UCX  ERROR req 0x2ee6980: error during flush: Connection reset by remote peer
[1753453106.190841] [rome34:2930989:0]           flush.c:57   UCX  ERROR req 0x2ee5940: error during flush: Connection reset by remote peer
[1753453106.191254] [rome34:2930989:0]           flush.c:57   UCX  ERROR req 0x2ee5940: error during flush: Connection reset by remote peer
[1753453106.193596] [rome34:2930975:0]           flush.c:57   UCX  ERROR req 0x2edd880: error during flush: Connection reset by remote peer
[1753453106.193949] [rome34:2930975:0]           flush.c:57   UCX  ERROR req 0x2edd880: error during flush: Connection reset by remote peer
[1753453106.194056] [rome34:2931005:0]           flush.c:57   UCX  ERROR req 0x2ee65c0: error during flush: Connection reset by remote peer
[1753453106.194082] [rome34:2931005:0]           flush.c:57   UCX  ERROR req 0x2ee65c0: error during flush: Connection reset by remote peer
[1753453106.199312] [rome34:2931015:0]           flush.c:57   UCX  ERROR req 0x2ee5080: error during flush: Connection reset by remote peer
[1753453106.199646] [rome34:2931015:0]           flush.c:57   UCX  ERROR req 0x2ee5080: error during flush: Connection reset by remote peer
