
     Program PWSCF v.7.2 starts on 24Jul2025 at  5:25:50 

     This program is part of the open-source Quantum ESPRESSO suite
     for quantum simulation of materials; please cite
         "P. Giannozzi et al., J. Phys.:Condens. Matter 21 395502 (2009);
         "P. Giannozzi et al., J. Phys.:Condens. Matter 29 465901 (2017);
         "P. Giannozzi et al., J. Chem. Phys. 152 154105 (2020);
          URL http://www.quantum-espresso.org", 
     in publications or presentations arising from this work. More details at
     http://www.quantum-espresso.org/quote

     Parallel version (MPI & OpenMP), running on     128 processor cores
     Number of MPI processes:               128
     Threads/MPI process:                     1

     MPI processes distributed on     2 nodes
     243979 MiB available memory on the printing compute node when the environment starts

     Reading input from Ag_mp-124_111_bridge_0.in

     Current dimensions of program PWSCF are:
     Max number of different atomic species (ntypx) = 10
     Max number of k-points (npk) =  40000
     Max angular momentum in pseudopotentials (lmaxx) =  4
     Message from routine iosys:
     restart disabled: needed files not found

     K-points division:     npool     =       4
     R & G space division:  proc/nbgrp/npool/nimage =      32
     Subspace diagonalization in iterative solution of the eigenvalue problem:
     a serial algorithm will be used


     Parallelization info
     --------------------
     sticks:   dense  smooth     PW     G-vecs:    dense   smooth      PW
     Min          32      14      4                 9247     2668     476
     Max          33      15      5                 9307     2719     521
     Sum        1039     451    151               296663    86301   15967

     Using Slab Decomposition



     bravais-lattice index     =            0
     lattice parameter (alat)  =       5.4844  a.u.
     unit-cell volume          =    1569.1543 (a.u.)^3
     number of atoms/cell      =            7
     number of atomic types    =            2
     number of electrons       =        69.00
     number of Kohn-Sham states=           42
     kinetic-energy cutoff     =      55.0000  Ry
     charge density cutoff     =     500.0000  Ry
     scf convergence threshold =      1.0E-06
     mixing beta               =       0.3000
     number of iterations used =            8  plain     mixing
     energy convergence thresh.=      1.0E-04
     force convergence thresh. =      1.0E-03
     Exchange-correlation= PBE
                           (   1   4   3   4   0   0   0)
     nstep                     =          500


     celldm(1)=   5.484398  celldm(2)=   0.000000  celldm(3)=   0.000000
     celldm(4)=   0.000000  celldm(5)=   0.000000  celldm(6)=   0.000000

     crystal axes: (cart. coord. in units of alat)
               a(1) = (   0.999045   0.000000   0.043685 )  
               a(2) = (   0.498568   0.865749   0.043685 )  
               a(3) = (   0.000000   0.000000  10.997690 )  

     reciprocal axes: (cart. coord. in units 2 pi/alat)
               b(1) = (  1.000956 -0.576430  0.000000 )  
               b(2) = (  0.000000  1.155069  0.000000 )  
               b(3) = ( -0.003976 -0.002298  0.090928 )  


     PseudoPot. # 1 for Li read from file:
     /home/ecastro/trabajo_final/pseudos/Li.pbe-s-rrkjus_psl.1.0.0.UPF
     MD5 check sum: 9f98d2529904d60b716d33989e9bc179
     Pseudo is Ultrasoft, Zval =  3.0
     Generated using &quot;atomic&quot; code by A. Dal Corso  v.6.3MaX
     Using radial grid of 1017 points,  4 beta functions with: 
                l(1) =   0
                l(2) =   0
                l(3) =   1
                l(4) =   1
     Q(r) pseudized with 0 coefficients 


     PseudoPot. # 2 for Ag read from file:
     /home/ecastro/trabajo_final/pseudos/Ag.pbe-n-rrkjus_psl.1.0.0.UPF
     MD5 check sum: 81cdf87bacf708300839c66ee23ce017
     Pseudo is Ultrasoft + core correction, Zval = 11.0
     Generated using &quot;atomic&quot; code by A. Dal Corso  v.6.2.2
     Using radial grid of 1237 points,  6 beta functions with: 
                l(1) =   0
                l(2) =   0
                l(3) =   1
                l(4) =   1
                l(5) =   2
                l(6) =   2
     Q(r) pseudized with 0 coefficients 


     atomic species   valence    mass     pseudopotential
        Li             3.00     6.94100     Li( 1.00)
        Ag            11.00   107.86820     Ag( 1.00)

     No symmetry found



   Cartesian axes

     site n.     atom                  positions (alat units)
         1           Ag  tau(   1) = (   0.6717609   0.1958243   3.4893255  )
         2           Ag  tau(   2) = (   0.6354667   0.7523774   4.3193443  )
         3           Ag  tau(   3) = (   1.0996503   0.4431812   5.1493632  )
         4           Ag  tau(   4) = (   0.5647885   0.1339850   5.9356968  )
         5           Ag  tau(   5) = (   0.5289793   0.6908197   6.7545940  )
         6           Ag  tau(   6) = (   0.9926572   0.3813309   7.5962214  )
         7           Li  tau(   7) = (   0.4630394   0.3639333   8.2853494  )

     --------------------------------------------
     DFT-D3 Dispersion Correction (no 3-body):
     --------------------------------------------
       Reference C6 values for interpolation: 

         atom   Coordination number   C6
         Li         0.000          2326.89
         Li         0.987           170.64
         Ag         0.000           853.49
         Ag         0.968           537.23

       Values used:

         atom   Coordination number  R0_AB[au]  C6      C8
         Ag         6.506            3.147    537.23  47741.54
         Ag         8.709            3.147    537.23  47741.54
         Ag         8.719            3.147    537.23  47741.54
         Ag         8.815            3.147    537.23  47741.54
         Ag         8.719            3.147    537.23  47741.54
         Ag         9.130            3.147    537.23  47741.54
         Li         7.802            3.303    170.64  12899.87

         Molecular C6 ( Ry / a.u.^6 ) =     22982.53


     number of k points=    34  Methfessel-Paxton smearing, width (Ry)=  0.0300
                       cart. coord. in units 2pi/alat
        k(    1) = (   0.0000000   0.0000000   0.0000000), wk =   0.0312500
        k(    2) = (   0.0000000   0.1443836   0.0000000), wk =   0.0625000
        k(    3) = (   0.0000000   0.2887672   0.0000000), wk =   0.0625000
        k(    4) = (   0.0000000   0.4331508   0.0000000), wk =   0.0625000
        k(    5) = (   0.0000000  -0.5775343   0.0000000), wk =   0.0312500
        k(    6) = (   0.1251194  -0.0720538   0.0000000), wk =   0.0625000
        k(    7) = (   0.1251194   0.0723298   0.0000000), wk =   0.0625000
        k(    8) = (   0.1251194   0.2167134   0.0000000), wk =   0.0625000
        k(    9) = (   0.1251194   0.3610970   0.0000000), wk =   0.0625000
        k(   10) = (   0.1251194  -0.6495881   0.0000000), wk =   0.0625000
        k(   11) = (   0.1251194  -0.5052045   0.0000000), wk =   0.0625000
        k(   12) = (   0.1251194  -0.3608209   0.0000000), wk =   0.0625000
        k(   13) = (   0.1251194  -0.2164373   0.0000000), wk =   0.0625000
        k(   14) = (   0.2502389  -0.1441075   0.0000000), wk =   0.0625000
        k(   15) = (   0.2502389   0.0002761   0.0000000), wk =   0.0625000
        k(   16) = (   0.2502389   0.1446597   0.0000000), wk =   0.0625000
        k(   17) = (   0.2502389   0.2890432   0.0000000), wk =   0.0625000
        k(   18) = (   0.2502389  -0.7216419   0.0000000), wk =   0.0625000
        k(   19) = (   0.2502389  -0.5772583   0.0000000), wk =   0.0625000
        k(   20) = (   0.2502389  -0.4328747   0.0000000), wk =   0.0625000
        k(   21) = (   0.2502389  -0.2884911   0.0000000), wk =   0.0625000
        k(   22) = (   0.3753583  -0.2161613   0.0000000), wk =   0.0625000
        k(   23) = (   0.3753583  -0.0717777   0.0000000), wk =   0.0625000
        k(   24) = (   0.3753583   0.0726059   0.0000000), wk =   0.0625000
        k(   25) = (   0.3753583   0.2169895   0.0000000), wk =   0.0625000
        k(   26) = (   0.3753583  -0.7936956   0.0000000), wk =   0.0625000
        k(   27) = (   0.3753583  -0.6493120   0.0000000), wk =   0.0625000
        k(   28) = (   0.3753583  -0.5049284   0.0000000), wk =   0.0625000
        k(   29) = (   0.3753583  -0.3605449   0.0000000), wk =   0.0625000
        k(   30) = (  -0.5004778   0.2882150   0.0000000), wk =   0.0312500
        k(   31) = (  -0.5004778   0.4325986   0.0000000), wk =   0.0625000
        k(   32) = (  -0.5004778   0.5769822   0.0000000), wk =   0.0625000
        k(   33) = (  -0.5004778   0.7213658   0.0000000), wk =   0.0625000
        k(   34) = (  -0.5004778  -0.2893193   0.0000000), wk =   0.0312500

     Dense  grid:   296663 G-vectors     FFT dimensions: (  40,  40, 432)

     Smooth grid:    86301 G-vectors     FFT dimensions: (  25,  25, 288)

     Estimated max dynamical RAM per process >      19.19 MB

     Estimated total dynamical RAM >       2.19 GB
     Cannot read rho : file not found

     Initial potential from superposition of free atoms

     starting charge      68.9930, renormalised to      69.0000

     negative rho (up, down):  2.905E-05 0.000E+00
     Message from routine qexsd_readschema :
     xml data file ./Ag_mp-124_111_bridge_0/Ag_mp-124_111_bridge_0.save/data-file-sch
     Cannot read wfcs: file not found
     Starting wfcs are   59 randomized atomic wfcs

     total cpu time spent up to now is        7.0 secs

     per-process dynamical memory:   175.1 Mb

     Self-consistent Calculation

     iteration #  1     ecut=    55.00 Ry     beta= 0.30
     Davidson diagonalization with overlap
     c_bands:  1 eigenvalues not converged
     c_bands:  1 eigenvalues not converged
     c_bands:  1 eigenvalues not converged
     c_bands:  1 eigenvalues not converged
     c_bands:  2 eigenvalues not converged
     c_bands:  2 eigenvalues not converged
     c_bands:  1 eigenvalues not converged
     c_bands:  1 eigenvalues not converged
     ethr =  1.00E-05,  avg # of iterations = 19.7

     negative rho (up, down):  2.301E-05 0.000E+00

     total cpu time spent up to now is        8.9 secs

     total energy              =    -520.40557233 Ry
     estimated scf accuracy    <       0.56199443 Ry

     iteration #  2     ecut=    55.00 Ry     beta= 0.30
     Davidson diagonalization with overlap
     ethr =  8.14E-04,  avg # of iterations =  9.3

     negative rho (up, down):  5.655E-05 0.000E+00

     total cpu time spent up to now is        9.6 secs

     total energy              =    -517.13367307 Ry
     estimated scf accuracy    <     212.27143912 Ry

     iteration #  3     ecut=    55.00 Ry     beta= 0.30
     Davidson diagonalization with overlap
     ethr =  8.14E-04,  avg # of iterations =  8.0

     negative rho (up, down):  5.324E-05 0.000E+00

     total cpu time spent up to now is       10.3 secs

     total energy              =    -520.61395565 Ry
     estimated scf accuracy    <       0.23483576 Ry

     iteration #  4     ecut=    55.00 Ry     beta= 0.30
     Davidson diagonalization with overlap
     ethr =  3.40E-04,  avg # of iterations =  2.8

     negative rho (up, down):  5.454E-05 0.000E+00

     total cpu time spent up to now is       10.7 secs

     total energy              =    -520.61155655 Ry
     estimated scf accuracy    <       0.41556381 Ry

     iteration #  5     ecut=    55.00 Ry     beta= 0.30
     Davidson diagonalization with overlap
     ethr =  3.40E-04,  avg # of iterations =  2.4

     negative rho (up, down):  5.362E-05 0.000E+00

     total cpu time spent up to now is       11.1 secs

     total energy              =    -520.61904431 Ry
     estimated scf accuracy    <       0.49324119 Ry

     iteration #  6     ecut=    55.00 Ry     beta= 0.30
     Davidson diagonalization with overlap
     ethr =  3.40E-04,  avg # of iterations =  1.2

     negative rho (up, down):  3.855E-05 0.000E+00

     total cpu time spent up to now is       11.4 secs

     total energy              =    -520.63237470 Ry
     estimated scf accuracy    <       0.02344099 Ry

     iteration #  7     ecut=    55.00 Ry     beta= 0.30
     Davidson diagonalization with overlap
     ethr =  3.40E-05,  avg # of iterations =  6.1

     negative rho (up, down):  2.075E-05 0.000E+00

     total cpu time spent up to now is       12.0 secs

     total energy              =    -520.63197443 Ry
     estimated scf accuracy    <       0.02439850 Ry

     iteration #  8     ecut=    55.00 Ry     beta= 0.30
     Davidson diagonalization with overlap
     ethr =  3.40E-05,  avg # of iterations =  1.5

     negative rho (up, down):  5.354E-06 0.000E+00

     total cpu time spent up to now is       12.3 secs

     total energy              =    -520.63212009 Ry
     estimated scf accuracy    <       0.00163075 Ry

     iteration #  9     ecut=    55.00 Ry     beta= 0.30
     Davidson diagonalization with overlap
     ethr =  2.36E-06,  avg # of iterations =  8.9

     negative rho (up, down):  5.922E-06 0.000E+00

     total cpu time spent up to now is       12.9 secs

     total energy              =    -520.63231488 Ry
     estimated scf accuracy    <       0.00010690 Ry

     iteration # 10     ecut=    55.00 Ry     beta= 0.30
     Davidson diagonalization with overlap
     ethr =  1.55E-07,  avg # of iterations =  1.9

     negative rho (up, down):  6.408E-06 0.000E+00

     total cpu time spent up to now is       13.3 secs

     total energy              =    -520.63231501 Ry
     estimated scf accuracy    <       0.00005611 Ry

     iteration # 11     ecut=    55.00 Ry     beta= 0.30
     Davidson diagonalization with overlap
     ethr =  8.13E-08,  avg # of iterations =  1.5

     negative rho (up, down):  7.062E-06 0.000E+00

     total cpu time spent up to now is       13.6 secs

     total energy              =    -520.63232060 Ry
     estimated scf accuracy    <       0.00000389 Ry

     iteration # 12     ecut=    55.00 Ry     beta= 0.30
     Davidson diagonalization with overlap
     ethr =  5.63E-09,  avg # of iterations =  2.8

     negative rho (up, down):  7.923E-06 0.000E+00

     total cpu time spent up to now is       14.0 secs

     End of self-consistent calculation

          k = 0.0000 0.0000 0.0000 ( 10919 PWs)   bands (ev):

   -42.8110  -3.6270  -3.1599  -2.5887  -2.3660  -2.2983  -2.2037  -1.0241
    -0.8365  -0.8281  -0.8251  -0.8062  -0.7596  -0.7569  -0.7431  -0.7361
    -0.6810  -0.6686  -0.6444  -0.6426  -0.5475  -0.5474  -0.1674   0.0950
     0.1415   0.1952   0.1974   0.2197   0.2348   0.4544   0.4671   0.7096
     0.7173   0.9189   0.9208   1.0202   2.2411   3.4827   3.9435   7.1930
     7.7661   8.1315

          k = 0.0000 0.1444 0.0000 ( 10876 PWs)   bands (ev):

   -42.8077  -3.2163  -2.7689  -2.2238  -2.1128  -2.0204  -1.8969  -1.1643
    -1.0425  -0.9578  -0.8924  -0.8665  -0.8159  -0.7045  -0.6606  -0.6328
    -0.5936  -0.5362  -0.5336  -0.5026  -0.4843  -0.4541  -0.3449  -0.2079
    -0.0282   0.0437   0.0989   0.1280   0.2346   0.2718   0.4605   0.4696
     0.7228   0.9366   0.9565   1.9000   2.9598   4.0161   4.7697   7.5261
     8.1076   8.4275

          k = 0.0000 0.2888 0.0000 ( 10871 PWs)   bands (ev):

   -42.8001  -2.3372  -2.0731  -1.9152  -1.8390  -1.7019  -1.6020  -1.4659
    -1.3717  -1.1857  -1.0743  -0.9284  -0.7728  -0.6483  -0.6016  -0.5686
    -0.4647  -0.3820  -0.3761  -0.2310  -0.1687  -0.0918  -0.0785   0.0385
     0.0778   0.0948   0.2251   0.2462   0.2809   0.4087   0.5250   0.7453
     0.8275   0.9724   1.8606   3.1110   4.1479   5.3038   6.6020   8.4670
     9.0901   9.4096

          k = 0.0000 0.4332 0.0000 ( 10791 PWs)   bands (ev):

   -42.7921  -2.2297  -2.1878  -2.0783  -2.0458  -1.9662  -1.8860  -1.8116
    -1.6959  -1.4203  -1.1021  -0.9177  -0.7820  -0.7056  -0.5493  -0.4846
    -0.2759  -0.1799  -0.0523   0.2019   0.2852   0.5062   0.5265   0.6886
     0.7120   0.7161   0.7899   0.8103   0.8508   0.8980   1.0321   1.5293
     1.8795   2.3553   3.3942   4.6795   5.7234   6.9394   8.4777   8.7987
     9.1592   9.5757

          k = 0.0000-0.5775 0.0000 ( 10736 PWs)   bands (ev):

   -42.7888  -2.3596  -2.3029  -2.2140  -2.1784  -2.0508  -2.0162  -1.9529
    -1.8386  -1.5488  -1.1728  -0.9980  -0.8743  -0.7756  -0.5404  -0.3540
    -0.2104  -0.0791   0.1534   0.2144   0.5187   0.6141   0.7364   0.8808
     0.9701   0.9870   1.0104   1.0172   1.0926   1.1227   1.1723   3.5118
     3.9993   4.5353   4.9666   5.2686   5.4828   6.6378   7.0704   7.7320
     8.3083   8.8764

          k = 0.1251-0.0721 0.0000 ( 10876 PWs)   bands (ev):

   -42.8077  -3.2159  -2.7668  -2.2160  -2.1109  -2.0160  -1.8960  -1.1657
    -1.0421  -0.9559  -0.8900  -0.8657  -0.8237  -0.7083  -0.6606  -0.6388
    -0.5932  -0.5419  -0.5357  -0.5031  -0.4840  -0.4586  -0.3443  -0.2265
    -0.0123   0.0383   0.0923   0.1472   0.2329   0.2833   0.4571   0.4783
     0.7282   0.9360   0.9430   1.8726   2.9473   4.0322   4.7734   7.5324
     8.1086   8.4287

          k = 0.1251 0.0723 0.0000 ( 10875 PWs)   bands (ev):

   -42.8077  -3.2159  -2.7668  -2.2160  -2.1109  -2.0160  -1.8960  -1.1657
    -1.0421  -0.9559  -0.8901  -0.8657  -0.8236  -0.7082  -0.6605  -0.6388
    -0.5933  -0.5418  -0.5358  -0.5031  -0.4840  -0.4587  -0.3443  -0.2265
    -0.0124   0.0383   0.0923   0.1472   0.2329   0.2833   0.4571   0.4783
     0.7283   0.9360   0.9430   1.8725   2.9473   4.0322   4.7734   7.5328
     8.1044   8.4371

          k = 0.1251 0.2167 0.0000 ( 10868 PWs)   bands (ev):

   -42.8023  -2.5086  -2.1600  -1.7224  -1.7112  -1.6368  -1.5187  -1.3342
    -1.2594  -1.2200  -1.1419  -1.0282  -0.9726  -0.8521  -0.8199  -0.6280
    -0.6178  -0.5250  -0.4818  -0.4102  -0.3609  -0.1905  -0.1277  -0.0911
    -0.0023   0.0687   0.1892   0.2320   0.3652   0.3793   0.4663   0.6383
     0.7952   0.8588   1.6215   2.7544   3.8023   4.9299   6.0716   8.1772
     8.7606   9.0912

          k = 0.1251 0.3611 0.0000 ( 10820 PWs)   bands (ev):

   -42.7944  -1.9765  -1.8624  -1.8044  -1.7463  -1.6746  -1.6134  -1.5396
    -1.3619  -1.3057  -1.1433  -1.0023  -0.9029  -0.7754  -0.6986  -0.6026
    -0.5347  -0.4666  -0.3064  -0.2560  -0.1731  -0.0518   0.0710   0.1473
     0.2308   0.4486   0.4815   0.7266   0.7504   0.8051   0.9580   1.3994
     1.5132   1.9406   2.9358   4.1560   5.1888   6.4493   7.9922   9.3360
    10.0577  10.4075

          k = 0.1251-0.6496 0.0000 ( 10762 PWs)   bands (ev):

   -42.7888  -2.1609  -2.0952  -2.0212  -1.9342  -1.8566  -1.8041  -1.7442
    -1.5823  -1.4591  -1.2205  -1.0297  -0.8436  -0.7320  -0.6321  -0.4968
    -0.4188  -0.1233  -0.0535   0.0299   0.2820   0.3331   0.4594   0.5360
     0.6252   0.6792   0.7334   0.8396   0.9476   0.9896   1.1273   3.4319
     3.7020   4.1526   4.9553   5.9352   6.7988   7.1835   7.6188   8.0976
     8.7123   9.1952

          k = 0.1251-0.5052 0.0000 ( 10760 PWs)   bands (ev):

   -42.7888  -2.1609  -2.0952  -2.0212  -1.9342  -1.8566  -1.8041  -1.7442
    -1.5823  -1.4591  -1.2205  -1.0297  -0.8436  -0.7320  -0.6322  -0.4967
    -0.4189  -0.1232  -0.0535   0.0298   0.2820   0.3331   0.4594   0.5361
     0.6253   0.6793   0.7334   0.8397   0.9476   0.9896   1.1273   3.4320
     3.7020   4.1525   4.9553   5.9352   6.7988   7.1833   7.6192   8.0976
     8.7122   9.1955

          k = 0.1251-0.3608 0.0000 ( 10818 PWs)   bands (ev):

   -42.7944  -1.9765  -1.8624  -1.8044  -1.7463  -1.6746  -1.6134  -1.5396
    -1.3619  -1.3057  -1.1433  -1.0024  -0.9028  -0.7754  -0.6986  -0.6027
    -0.5347  -0.4666  -0.3063  -0.2561  -0.1730  -0.0517   0.0709   0.1473
     0.2309   0.4486   0.4815   0.7266   0.7504   0.8051   0.9580   1.3994
     1.5132   1.9406   2.9358   4.1560   5.1888   6.4492   7.9923   9.3351
    10.0733  10.3788

          k = 0.1251-0.2164 0.0000 ( 10863 PWs)   bands (ev):

   -42.8022  -2.5086  -2.1600  -1.7224  -1.7111  -1.6368  -1.5187  -1.3342
    -1.2593  -1.2200  -1.1419  -1.0283  -0.9724  -0.8521  -0.8199  -0.6280
    -0.6177  -0.5250  -0.4819  -0.4102  -0.3609  -0.1905  -0.1279  -0.0911
    -0.0022   0.0688   0.1893   0.2320   0.3652   0.3793   0.4662   0.6383
     0.7952   0.8588   1.6215   2.7544   3.8023   4.9299   6.0716   8.1758
     8.7789   9.0582

          k = 0.2502-0.1441 0.0000 ( 10871 PWs)   bands (ev):

   -42.8000  -2.3363  -2.0693  -1.9093  -1.8178  -1.6946  -1.5820  -1.4681
    -1.3687  -1.1920  -1.0766  -0.9365  -0.7881  -0.6531  -0.6055  -0.5640
    -0.4795  -0.3956  -0.3652  -0.2351  -0.1559  -0.0946  -0.0688   0.0420
     0.0753   0.0887   0.2253   0.2419   0.2870   0.4160   0.5295   0.7498
     0.8075   0.9739   1.8137   3.0299   4.1412   5.3451   6.5940   8.4907
     9.0988   9.4102

          k = 0.2502 0.0003 0.0000 ( 10868 PWs)   bands (ev):

   -42.8022  -2.5081  -2.1576  -1.7223  -1.7003  -1.6303  -1.5132  -1.3324
    -1.2541  -1.2196  -1.1422  -1.0314  -0.9708  -0.8550  -0.8222  -0.6322
    -0.6222  -0.5251  -0.4773  -0.4154  -0.3545  -0.1958  -0.1149  -0.0968
    -0.0107   0.0600   0.1725   0.2505   0.3732   0.3801   0.4661   0.6447
     0.7813   0.8595   1.5897   2.7059   3.7980   4.9595   6.0735   8.1934
     8.7642   9.0946

          k = 0.2502 0.1447 0.0000 ( 10860 PWs)   bands (ev):

   -42.7999  -2.3363  -2.0693  -1.9092  -1.8178  -1.6947  -1.5820  -1.4681
    -1.3687  -1.1920  -1.0765  -0.9366  -0.7880  -0.6531  -0.6055  -0.5640
    -0.4796  -0.3954  -0.3651  -0.2351  -0.1559  -0.0946  -0.0688   0.0420
     0.0753   0.0887   0.2254   0.2420   0.2870   0.4160   0.5295   0.7499
     0.8075   0.9740   1.8137   3.0299   4.1412   5.3451   6.5941   8.4922
     9.0834   9.4385

          k = 0.2502 0.2890 0.0000 ( 10819 PWs)   bands (ev):

   -42.7943  -1.9753  -1.8646  -1.8018  -1.7397  -1.6724  -1.6146  -1.5169
    -1.3518  -1.3089  -1.1388  -1.0033  -0.9021  -0.7737  -0.7094  -0.5977
    -0.5359  -0.4928  -0.3119  -0.2529  -0.1769  -0.0573   0.0719   0.1558
     0.2343   0.4385   0.4874   0.7216   0.7514   0.8059   0.9578   1.4051
     1.5159   1.9352   2.9011   4.0815   5.1833   6.4771   7.9513   9.3519
    10.0830  10.4471

          k = 0.2502-0.7216 0.0000 ( 10755 PWs)   bands (ev):

   -42.7886  -1.8697  -1.8420  -1.7045  -1.6573  -1.5339  -1.4470  -1.3925
    -1.2679  -1.2397  -1.2280  -1.0677  -0.9721  -0.8706  -0.7658  -0.6181
    -0.5556  -0.4646  -0.3749  -0.2805  -0.1229  -0.0595   0.0834   0.1525
     0.2443   0.3292   0.5006   0.7981   0.9685   1.0062   1.1286   3.3931
     3.6122   4.0939   4.9414   5.9476   7.0407   8.2326   8.7270   9.6577
     9.8233   9.9614

          k = 0.2502-0.5773 0.0000 ( 10783 PWs)   bands (ev):

   -42.7865  -1.9256  -1.7196  -1.6842  -1.6149  -1.5524  -1.4760  -1.4282
    -1.3715  -1.2218  -1.1710  -1.1028  -0.9788  -0.8350  -0.8146  -0.6008
    -0.5031  -0.4212  -0.3036  -0.1702  -0.1059  -0.0391   0.1691   0.2809
     0.3480   0.4192   0.6560   0.7726   0.8339   0.9312   0.9736   5.4470
     6.1348   6.2270   6.5310   6.8061   7.0321   7.6126   7.8793   8.5036
     9.0765   9.3147

          k = 0.2502-0.4329 0.0000 ( 10756 PWs)   bands (ev):

   -42.7887  -1.8697  -1.8420  -1.7045  -1.6573  -1.5339  -1.4470  -1.3926
    -1.2680  -1.2396  -1.2280  -1.0676  -0.9722  -0.8706  -0.7658  -0.6180
    -0.5556  -0.4648  -0.3749  -0.2805  -0.1229  -0.0595   0.0835   0.1527
     0.2443   0.3292   0.5007   0.7982   0.9686   1.0062   1.1286   3.3931
     3.6122   4.0938   4.9413   5.9476   7.0408   8.2326   8.7271   9.6576
     9.8233   9.9611

          k = 0.2502-0.2885 0.0000 ( 10818 PWs)   bands (ev):

   -42.7943  -1.9753  -1.8646  -1.8018  -1.7397  -1.6725  -1.6146  -1.5169
    -1.3517  -1.3089  -1.1388  -1.0033  -0.9021  -0.7737  -0.7094  -0.5978
    -0.5360  -0.4928  -0.3118  -0.2531  -0.1768  -0.0572   0.0718   0.1558
     0.2343   0.4385   0.4874   0.7216   0.7515   0.8059   0.9578   1.4051
     1.5159   1.9353   2.9011   4.0815   5.1834   6.4770   7.9514   9.3498
    10.1185  10.3727

          k = 0.3754-0.2162 0.0000 ( 10791 PWs)   bands (ev):

   -42.7919  -2.2265  -2.1886  -2.0765  -2.0343  -1.9623  -1.8554  -1.8168
    -1.6932  -1.4313  -1.1078  -0.9196  -0.7823  -0.7002  -0.5769  -0.4712
    -0.2823  -0.1547  -0.0676   0.2165   0.2726   0.5050   0.5335   0.6836
     0.7111   0.7131   0.7913   0.8098   0.8522   0.8982   1.0333   1.5416
     1.8916   2.3482   3.3031   4.4610   5.6505   7.0214   8.2674   8.7924
     9.2537   9.9101

          k = 0.3754-0.0718 0.0000 ( 10820 PWs)   bands (ev):

   -42.7942  -1.9767  -1.8655  -1.8025  -1.7421  -1.6737  -1.6164  -1.5174
    -1.3564  -1.3138  -1.1476  -1.0079  -0.9092  -0.7726  -0.7046  -0.5885
    -0.5362  -0.4582  -0.2959  -0.2379  -0.1715  -0.0566   0.0729   0.1607
     0.2335   0.4414   0.4820   0.7185   0.7520   0.8047   0.9586   1.3877
     1.5046   1.9108   2.8682   4.0406   5.1911   6.5074   7.9558   9.3566
    10.1159  10.4114

          k = 0.3754 0.0726 0.0000 ( 10819 PWs)   bands (ev):

   -42.7942  -1.9767  -1.8655  -1.8025  -1.7421  -1.6736  -1.6164  -1.5174
    -1.3564  -1.3138  -1.1476  -1.0080  -0.9091  -0.7726  -0.7046  -0.5885
    -0.5362  -0.4582  -0.2959  -0.2378  -0.1715  -0.0566   0.0729   0.1607
     0.2335   0.4414   0.4821   0.7185   0.7519   0.8047   0.9586   1.3877
     1.5046   1.9108   2.8682   4.0406   5.1911   6.5075   7.9557   9.3576
    10.0994  10.4532

          k = 0.3754 0.2170 0.0000 ( 10794 PWs)   bands (ev):

   -42.7919  -2.2265  -2.1886  -2.0766  -2.0343  -1.9623  -1.8554  -1.8169
    -1.6932  -1.4314  -1.1076  -0.9196  -0.7824  -0.7002  -0.5769  -0.4712
    -0.2823  -0.1547  -0.0675   0.2165   0.2724   0.5050   0.5335   0.6837
     0.7110   0.7131   0.7913   0.8098   0.8522   0.8982   1.0333   1.5417
     1.8916   2.3481   3.3030   4.4610   5.6504   7.0215   8.2671   8.7926
     9.2544   9.9115

          k = 0.3754-0.7937 0.0000 ( 10771 PWs)   bands (ev):

   -42.7886  -2.1629  -2.0930  -2.0203  -1.9291  -1.8542  -1.8051  -1.7191
    -1.5802  -1.4671  -1.2212  -1.0294  -0.8290  -0.7322  -0.6426  -0.5060
    -0.4085  -0.1349  -0.0375   0.0210   0.2744   0.3424   0.4500   0.5319
     0.6230   0.6767   0.7331   0.8308   0.9473   0.9888   1.1273   3.5023
     3.7513   4.1437   4.7937   5.5837   6.4806   7.1280   7.9781   8.2790
     8.7031   9.3790

          k = 0.3754-0.6493 0.0000 ( 10768 PWs)   bands (ev):

   -42.7863  -1.9282  -1.7174  -1.6910  -1.6134  -1.5521  -1.4873  -1.4300
    -1.3724  -1.2201  -1.1679  -1.1008  -0.9522  -0.8342  -0.8011  -0.6026
    -0.5042  -0.4246  -0.3011  -0.1683  -0.1056  -0.0406   0.1687   0.2834
     0.3398   0.4069   0.6561   0.7717   0.8334   0.9320   0.9740   5.4877
     6.1065   6.1529   6.3056   6.6586   7.1196   7.7065   8.0086   8.3816
     9.0566   9.3851

          k = 0.3754-0.5049 0.0000 ( 10783 PWs)   bands (ev):

   -42.7864  -1.9282  -1.7174  -1.6910  -1.6134  -1.5521  -1.4874  -1.4302
    -1.3724  -1.2201  -1.1679  -1.1008  -0.9523  -0.8342  -0.8012  -0.6026
    -0.5043  -0.4247  -0.3012  -0.1682  -0.1057  -0.0406   0.1687   0.2833
     0.3398   0.4069   0.6560   0.7717   0.8334   0.9320   0.9740   5.4877
     6.1056   6.1529   6.3060   6.6593   7.1202   7.7069   8.0081   8.3814
     9.0557   9.3852

          k = 0.3754-0.3605 0.0000 ( 10760 PWs)   bands (ev):

   -42.7886  -2.1629  -2.0930  -2.0203  -1.9291  -1.8541  -1.8051  -1.7191
    -1.5801  -1.4671  -1.2213  -1.0294  -0.8291  -0.7322  -0.6427  -0.5059
    -0.4085  -0.1349  -0.0374   0.0210   0.2743   0.3424   0.4500   0.5319
     0.6232   0.6768   0.7331   0.8308   0.9473   0.9888   1.1273   3.5022
     3.7513   4.1438   4.7937   5.5838   6.4810   7.1283   7.9774   8.2788
     8.7030   9.3781

          k =-0.5005 0.2882 0.0000 ( 10736 PWs)   bands (ev):

   -42.7885  -2.3577  -2.3032  -2.2135  -2.1671  -2.0506  -1.9825  -1.9578
    -1.8369  -1.5591  -1.1788  -0.9977  -0.8743  -0.7700  -0.5266  -0.4010
    -0.1845  -0.0856   0.1320   0.2304   0.5102   0.6225   0.7300   0.8825
     0.9657   0.9865   1.0105   1.0136   1.0928   1.1228   1.1725   3.7221
     4.2162   4.5580   4.6926   5.0388   5.2994   5.4902   7.6653   8.1671
     8.6648   8.8652

          k =-0.5005 0.4326 0.0000 ( 10762 PWs)   bands (ev):

   -42.7886  -2.1633  -2.0934  -2.0207  -1.9295  -1.8554  -1.8060  -1.7189
    -1.5816  -1.4704  -1.2267  -1.0300  -0.8289  -0.7289  -0.6479  -0.5070
    -0.3996  -0.1222  -0.0455   0.0245   0.2919   0.3405   0.4490   0.5311
     0.6237   0.6784   0.7329   0.8335   0.9473   0.9883   1.1277   3.4914
     3.7356   4.1250   4.7774   5.5779   6.4796   7.1275   7.9917   8.3785
     8.7249   9.3629

          k =-0.5005 0.5770 0.0000 ( 10755 PWs)   bands (ev):

   -42.7885  -1.8724  -1.8430  -1.7051  -1.6698  -1.5396  -1.4476  -1.3966
    -1.2706  -1.2485  -1.2272  -1.0696  -0.9587  -0.8725  -0.7452  -0.6028
    -0.5560  -0.4394  -0.3706  -0.2817  -0.1234  -0.0596   0.0982   0.1474
     0.2434   0.3241   0.4945   0.7935   0.9672   1.0069   1.1291   3.3835
     3.5939   4.0510   4.8602   5.8597   7.0479   8.3983   8.9889   9.5876
     9.7635   9.9065

          k =-0.5005 0.7214 0.0000 ( 10771 PWs)   bands (ev):

   -42.7886  -2.1633  -2.0934  -2.0207  -1.9295  -1.8555  -1.8060  -1.7189
    -1.5817  -1.4705  -1.2267  -1.0299  -0.8288  -0.7290  -0.6479  -0.5070
    -0.3997  -0.1221  -0.0455   0.0244   0.2919   0.3404   0.4490   0.5311
     0.6236   0.6783   0.7329   0.8334   0.9473   0.9883   1.1276   3.4915
     3.7356   4.1249   4.7774   5.5778   6.4793   7.1273   7.9922   8.3790
     8.7250   9.3637

          k =-0.5005-0.2893 0.0000 ( 10756 PWs)   bands (ev):

   -42.7886  -2.3577  -2.3032  -2.2136  -2.1671  -2.0507  -1.9826  -1.9579
    -1.8369  -1.5592  -1.1787  -0.9977  -0.8742  -0.7700  -0.5267  -0.4011
    -0.1846  -0.0857   0.1319   0.2304   0.5102   0.6225   0.7300   0.8824
     0.9657   0.9865   1.0105   1.0135   1.0928   1.1228   1.1725   3.7226
     4.2168   4.5555   4.6934   5.0389   5.2993   5.4902   7.6656   8.1679
     8.6652   8.8652

     the Fermi energy is     3.9140 ev

!    total energy              =    -520.63232096 Ry
     estimated scf accuracy    <       0.00000071 Ry
     smearing contrib. (-TS)   =      -0.00197217 Ry
     internal energy E=F+TS    =    -520.63034879 Ry

     The total energy is F=E-TS. E is the sum of the following terms:
     one-electron contribution =   -6611.19866950 Ry
     hartree contribution      =    3357.00123609 Ry
     xc contribution           =    -137.63466948 Ry
     ewald contribution        =    2871.39418605 Ry
     DFT-D3 Dispersion         =      -0.19243195 Ry

     convergence has been achieved in  12 iterations

     negative rho (up, down):  7.923E-06 0.000E+00

     Forces acting on atoms (cartesian axes, Ry/au):

     atom    1 type  2   force =     0.00000501    0.00002176   -0.00003708
     atom    2 type  2   force =    -0.00028008   -0.00021433    0.00639401
     atom    3 type  2   force =     0.00004710    0.00016466   -0.00104303
     atom    4 type  2   force =     0.00018522    0.00018473   -0.00415764
     atom    5 type  2   force =    -0.00009914   -0.00013302    0.00219721
     atom    6 type  2   force =     0.00055898    0.00047377   -0.01027564
     atom    7 type  1   force =    -0.00041708   -0.00049757    0.00692216
     The non-local contrib.  to forces
     atom    1 type  2   force =     0.00270307    0.00169091   -0.06177376
     atom    2 type  2   force =     0.00145331    0.00071027   -0.03329276
     atom    3 type  2   force =    -0.00007238    0.00054892    0.00167313
     atom    4 type  2   force =     0.00010566    0.00070519   -0.00248326
     atom    5 type  2   force =    -0.00055064   -0.00293728    0.01229435
     atom    6 type  2   force =    -0.00102379   -0.00009728    0.01761259
     atom    7 type  1   force =    -0.00232818   -0.00168688    0.05255303
     The ionic contribution  to forces
     atom    1 type  2   force =     7.13412174    4.12413744 -163.15160866
     atom    2 type  2   force =     4.43307599    2.56270012 -101.38087148
     atom    3 type  2   force =     1.71210219    0.98974268  -39.15439604
     atom    4 type  2   force =    -1.01057092   -0.58419724   23.11088499
     atom    5 type  2   force =    -3.75905232   -2.17228179   85.96656240
     atom    6 type  2   force =    -6.43718680   -3.72270292  147.25712229
     atom    7 type  1   force =    -2.07248987   -1.19739831   47.35230651
     The local contribution  to forces
     atom    1 type  2   force =    -7.13638815   -4.12555252  163.20342439
     atom    2 type  2   force =    -4.43459546   -2.56349591  101.41564331
     atom    3 type  2   force =    -1.71198381   -0.99012757   39.15168194
     atom    4 type  2   force =     1.01057561    0.58361437  -23.11091976
     atom    5 type  2   force =     3.75925571    2.17495588  -85.97097585
     atom    6 type  2   force =     6.43882977    3.72329319 -147.28578972
     atom    7 type  1   force =     2.07430927    1.19851667  -47.39590804
     The core correction contribution to forces
     atom    1 type  2   force =    -0.00024623   -0.00013989    0.00562918
     atom    2 type  2   force =     0.00000983    0.00000407   -0.00022381
     atom    3 type  2   force =    -0.00000087    0.00000740    0.00001978
     atom    4 type  2   force =    -0.00002837   -0.00001493    0.00064558
     atom    5 type  2   force =     0.00004344   -0.00000760   -0.00099235
     atom    6 type  2   force =    -0.00018280   -0.00007588    0.00382517
     atom    7 type  1   force =     0.00000000    0.00000000    0.00000000
     The Hubbard contrib.    to forces
     atom    1 type  2   force =     0.00000000    0.00000000    0.00000000
     atom    2 type  2   force =     0.00000000    0.00000000    0.00000000
     atom    3 type  2   force =     0.00000000    0.00000000    0.00000000
     atom    4 type  2   force =     0.00000000    0.00000000    0.00000000
     atom    5 type  2   force =     0.00000000    0.00000000    0.00000000
     atom    6 type  2   force =     0.00000000    0.00000000    0.00000000
     atom    7 type  1   force =     0.00000000    0.00000000    0.00000000
     The SCF correction term to forces
     atom    1 type  2   force =     0.00003730    0.00001603   -0.00082590
     atom    2 type  2   force =    -0.00006162   -0.00003771    0.00140695
     atom    3 type  2   force =     0.00002913    0.00001037   -0.00066713
     atom    4 type  2   force =     0.00010724    0.00008111   -0.00240088
     atom    5 type  2   force =     0.00010924    0.00009750   -0.00253319
     atom    6 type  2   force =    -0.00006363   -0.00004880    0.00126538
     atom    7 type  1   force =    -0.00001291   -0.00000229    0.00026305

     DFT-D3 dispersion contribution to forces:
     atom    1 type  2   force =    -0.00021848   -0.00012630    0.00499644
     atom    2 type  2   force =    -0.00015788   -0.00009127    0.00361059
     atom    3 type  2   force =    -0.00002292   -0.00001325    0.00052406
     atom    4 type  2   force =     0.00000025    0.00000014   -0.00000553
     atom    5 type  2   force =     0.00009969    0.00004417   -0.00227937
     atom    6 type  2   force =     0.00019048    0.00010935   -0.00443257
     atom    7 type  1   force =     0.00010886    0.00007715   -0.00241362

     Total force =     0.014792     Total SCF correction =     0.004125
     SCF correction compared to forces is large: reduce conv_thr to get better values


     Computing stress (Cartesian axis) and pressure


     negative rho (up, down):  7.923E-06 0.000E+00
          total   stress  (Ry/bohr**3)                   (kbar)     P=      -11.41
  -0.00004338   0.00000007   0.00000215           -6.38        0.01        0.32
   0.00000007  -0.00008994  -0.00000169            0.01      -13.23       -0.25
   0.00000215  -0.00000169  -0.00009928            0.32       -0.25      -14.60


     BFGS Geometry Optimization
     Energy error            =      0.0E+00 Ry
     Gradient error          =      1.0E-02 Ry/Bohr

     number of scf cycles    =   1
     number of bfgs steps    =   0

     energy             new  =    -520.6323209597 Ry

     new trust radius        =       0.0103017334 bohr
     new conv_thr            =       0.0000010000 Ry


ATOMIC_POSITIONS (angstrom)
Ag            1.9495993462        0.5683362623       10.1267643709
Ag            1.8441148230        2.1834500827       12.5390633933
Ag            3.1914500369        1.2862957722       14.9440237143
Ag            1.6392376041        0.3889515304       17.2244873785
Ag            1.5351607960        2.0048391839       19.6044685668
Ag            2.8812036380        1.1069560964       22.0404543359
Li            1.3436207742        1.0559505580       24.0495550196



     Writing config-only to output data dir ./Ag_mp-124_111_bridge_0/Ag_mp-124_111_bridge_0.save/
     NEW-OLD atomic charge density approx. for the potential

     negative rho (up, down):  8.161E-06 0.000E+00

     total cpu time spent up to now is       16.2 secs

     per-process dynamical memory:   187.7 Mb

     Self-consistent Calculation

     iteration #  1     ecut=    55.00 Ry     beta= 0.30
     Davidson diagonalization with overlap
     ethr =  1.00E-06,  avg # of iterations =  3.2

     negative rho (up, down):  8.095E-06 0.000E+00

     total cpu time spent up to now is       16.8 secs

     total energy              =    -520.63216131 Ry
     estimated scf accuracy    <       0.00073451 Ry

     iteration #  2     ecut=    55.00 Ry     beta= 0.30
     Davidson diagonalization with overlap
     ethr =  1.06E-06,  avg # of iterations = 10.7

     negative rho (up, down):  8.206E-06 0.000E+00

     total cpu time spent up to now is       17.4 secs

     total energy              =    -520.62850892 Ry
     estimated scf accuracy    <       0.29698544 Ry

     iteration #  3     ecut=    55.00 Ry     beta= 0.30
     Davidson diagonalization with overlap
     ethr =  1.06E-06,  avg # of iterations = 10.0

     negative rho (up, down):  8.361E-06 0.000E+00

     total cpu time spent up to now is       18.1 secs

     total energy              =    -520.63251640 Ry
     estimated scf accuracy    <       0.00009793 Ry

     iteration #  4     ecut=    55.00 Ry     beta= 0.30
     Davidson diagonalization with overlap
     ethr =  1.42E-07,  avg # of iterations =  1.3

     negative rho (up, down):  8.503E-06 0.000E+00

     total cpu time spent up to now is       18.4 secs

     total energy              =    -520.63252356 Ry
     estimated scf accuracy    <       0.00002414 Ry

     iteration #  5     ecut=    55.00 Ry     beta= 0.30
     Davidson diagonalization with overlap
     ethr =  3.50E-08,  avg # of iterations =  1.4

     negative rho (up, down):  8.357E-06 0.000E+00

     total cpu time spent up to now is       18.8 secs

     total energy              =    -520.63252456 Ry
     estimated scf accuracy    <       0.00001341 Ry

     iteration #  6     ecut=    55.00 Ry     beta= 0.30
     Davidson diagonalization with overlap
     ethr =  1.94E-08,  avg # of iterations =  1.3

     negative rho (up, down):  8.159E-06 0.000E+00

     total cpu time spent up to now is       19.2 secs

     total energy              =    -520.63252527 Ry
     estimated scf accuracy    <       0.00000298 Ry

     iteration #  7     ecut=    55.00 Ry     beta= 0.30
     Davidson diagonalization with overlap
     ethr =  4.32E-09,  avg # of iterations =  2.1

     negative rho (up, down):  8.031E-06 0.000E+00

     total cpu time spent up to now is       19.5 secs

     End of self-consistent calculation

          k = 0.0000 0.0000 0.0000 ( 10919 PWs)   bands (ev):

   -42.8182  -3.6305  -3.1625  -2.5892  -2.3678  -2.3010  -2.2031  -1.0197
    -0.8376  -0.8294  -0.8266  -0.8085  -0.7619  -0.7591  -0.7439  -0.7370
    -0.6799  -0.6678  -0.6466  -0.6450  -0.5484  -0.5484  -0.1682   0.0972
     0.1417   0.1933   0.1952   0.2203   0.2354   0.4556   0.4682   0.7088
     0.7168   0.9181   0.9201   1.0183   2.2391   3.4788   3.9400   7.1947
     7.7875   8.1344

          k = 0.0000 0.1444 0.0000 ( 10876 PWs)   bands (ev):

   -42.8149  -3.2199  -2.7716  -2.2244  -2.1148  -2.0227  -1.8964  -1.1634
    -1.0451  -0.9599  -0.8946  -0.8670  -0.8151  -0.7039  -0.6627  -0.6328
    -0.5954  -0.5372  -0.5348  -0.5037  -0.4858  -0.4537  -0.3460  -0.2062
    -0.0279   0.0438   0.0988   0.1284   0.2348   0.2730   0.4583   0.4704
     0.7219   0.9359   0.9552   1.8989   2.9574   4.0124   4.7676   7.5278
     8.1267   8.4314

          k = 0.0000 0.2888 0.0000 ( 10871 PWs)   bands (ev):

   -42.8072  -2.3405  -2.0758  -1.9173  -1.8402  -1.7033  -1.6020  -1.4681
    -1.3731  -1.1875  -1.0752  -0.9288  -0.7710  -0.6485  -0.6026  -0.5712
    -0.4645  -0.3820  -0.3785  -0.2308  -0.1691  -0.0916  -0.0789   0.0383
     0.0768   0.0962   0.2241   0.2454   0.2813   0.4092   0.5250   0.7443
     0.8275   0.9718   1.8608   3.1080   4.1445   5.3018   6.6003   8.4679
     9.1007   9.4187

          k = 0.0000 0.4332 0.0000 ( 10791 PWs)   bands (ev):

   -42.7993  -2.2320  -2.1907  -2.0807  -2.0473  -1.9687  -1.8848  -1.8137
    -1.6968  -1.4205  -1.1008  -0.9177  -0.7828  -0.7083  -0.5493  -0.4868
    -0.2760  -0.1784  -0.0525   0.2038   0.2856   0.5054   0.5261   0.6897
     0.7115   0.7152   0.7890   0.8100   0.8499   0.8961   1.0314   1.5283
     1.8786   2.3566   3.3944   4.6740   5.7185   6.9378   8.4754   8.7972
     9.1557   9.5726

          k = 0.0000-0.5775 0.0000 ( 10736 PWs)   bands (ev):

   -42.7960  -2.3621  -2.3056  -2.2168  -2.1799  -2.0526  -2.0152  -1.9554
    -1.8392  -1.5485  -1.1706  -0.9989  -0.8752  -0.7783  -0.5426  -0.3533
    -0.2086  -0.0791   0.1537   0.2167   0.5184   0.6136   0.7366   0.8801
     0.9720   0.9866   1.0090   1.0163   1.0915   1.1219   1.1704   3.5133
     3.9984   4.5357   4.9655   5.2665   5.4812   6.6260   7.0627   7.7307
     8.3055   8.8764

          k = 0.1251-0.0721 0.0000 ( 10876 PWs)   bands (ev):

   -42.8149  -3.2194  -2.7695  -2.2169  -2.1130  -2.0181  -1.8956  -1.1647
    -1.0447  -0.9581  -0.8919  -0.8666  -0.8227  -0.7075  -0.6626  -0.6388
    -0.5949  -0.5427  -0.5368  -0.5043  -0.4851  -0.4585  -0.3454  -0.2244
    -0.0130   0.0388   0.0920   0.1471   0.2331   0.2841   0.4550   0.4790
     0.7275   0.9352   0.9421   1.8718   2.9451   4.0285   4.7713   7.5342
     8.1277   8.4327

          k = 0.1251 0.0723 0.0000 ( 10875 PWs)   bands (ev):

   -42.8149  -3.2194  -2.7695  -2.2169  -2.1130  -2.0182  -1.8956  -1.1647
    -1.0447  -0.9581  -0.8920  -0.8666  -0.8226  -0.7074  -0.6626  -0.6388
    -0.5950  -0.5426  -0.5368  -0.5042  -0.4851  -0.4586  -0.3455  -0.2244
    -0.0131   0.0388   0.0921   0.1471   0.2331   0.2841   0.4550   0.4790
     0.7276   0.9352   0.9421   1.8718   2.9451   4.0285   4.7713   7.5345
     8.1232   8.4412

          k = 0.1251 0.2167 0.0000 ( 10868 PWs)   bands (ev):

   -42.8094  -2.5122  -2.1629  -1.7245  -1.7128  -1.6392  -1.5192  -1.3342
    -1.2616  -1.2214  -1.1443  -1.0290  -0.9713  -0.8520  -0.8203  -0.6277
    -0.6193  -0.5273  -0.4822  -0.4092  -0.3607  -0.1910  -0.1274  -0.0909
    -0.0037   0.0684   0.1886   0.2341   0.3656   0.3789   0.4647   0.6380
     0.7937   0.8585   1.6218   2.7523   3.7993   4.9275   6.0701   8.1787
     8.7738   9.0994

          k = 0.1251 0.3611 0.0000 ( 10820 PWs)   bands (ev):

   -42.8016  -1.9795  -1.8653  -1.8066  -1.7482  -1.6770  -1.6154  -1.5394
    -1.3616  -1.3079  -1.1434  -1.0030  -0.9030  -0.7770  -0.6993  -0.6035
    -0.5354  -0.4663  -0.3060  -0.2557  -0.1728  -0.0512   0.0708   0.1491
     0.2308   0.4480   0.4810   0.7265   0.7494   0.8039   0.9571   1.3989
     1.5119   1.9416   2.9361   4.1515   5.1853   6.4480   7.9904   9.3353
    10.0645  10.4115

          k = 0.1251-0.6496 0.0000 ( 10762 PWs)   bands (ev):

   -42.7960  -2.1638  -2.0978  -2.0239  -1.9360  -1.8581  -1.8067  -1.7434
    -1.5828  -1.4594  -1.2197  -1.0319  -0.8442  -0.7331  -0.6326  -0.4972
    -0.4185  -0.1231  -0.0520   0.0303   0.2826   0.3339   0.4593   0.5355
     0.6260   0.6786   0.7320   0.8396   0.9464   0.9893   1.1262   3.4320
     3.7006   4.1533   4.9539   5.9298   6.7937   7.1806   7.6159   8.0967
     8.7106   9.1925

          k = 0.1251-0.5052 0.0000 ( 10760 PWs)   bands (ev):

   -42.7960  -2.1638  -2.0977  -2.0238  -1.9360  -1.8580  -1.8067  -1.7435
    -1.5828  -1.4595  -1.2197  -1.0319  -0.8443  -0.7331  -0.6327  -0.4971
    -0.4186  -0.1229  -0.0520   0.0302   0.2826   0.3339   0.4593   0.5355
     0.6260   0.6786   0.7320   0.8397   0.9464   0.9893   1.1262   3.4320
     3.7006   4.1533   4.9539   5.9298   6.7937   7.1805   7.6163   8.0966
     8.7104   9.1923

          k = 0.1251-0.3608 0.0000 ( 10818 PWs)   bands (ev):

   -42.8016  -1.9795  -1.8653  -1.8066  -1.7482  -1.6770  -1.6154  -1.5394
    -1.3616  -1.3079  -1.1434  -1.0030  -0.9030  -0.7770  -0.6993  -0.6036
    -0.5354  -0.4663  -0.3059  -0.2558  -0.1727  -0.0511   0.0707   0.1491
     0.2308   0.4480   0.4810   0.7265   0.7493   0.8040   0.9571   1.3989
     1.5119   1.9416   2.9361   4.1515   5.1853   6.4479   7.9904   9.3343
    10.0797  10.3840

          k = 0.1251-0.2164 0.0000 ( 10863 PWs)   bands (ev):

   -42.8094  -2.5122  -2.1629  -1.7245  -1.7127  -1.6392  -1.5192  -1.3342
    -1.2616  -1.2214  -1.1443  -1.0290  -0.9712  -0.8521  -0.8203  -0.6277
    -0.6192  -0.5272  -0.4823  -0.4092  -0.3607  -0.1910  -0.1275  -0.0909
    -0.0036   0.0685   0.1886   0.2341   0.3656   0.3790   0.4647   0.6380
     0.7938   0.8586   1.6218   2.7523   3.7993   4.9275   6.0700   8.1773
     8.7920   9.0663

          k = 0.2502-0.1441 0.0000 ( 10871 PWs)   bands (ev):

   -42.8071  -2.3396  -2.0719  -1.9118  -1.8194  -1.6963  -1.5825  -1.4703
    -1.3701  -1.1936  -1.0773  -0.9364  -0.7860  -0.6536  -0.6063  -0.5667
    -0.4792  -0.3955  -0.3675  -0.2349  -0.1571  -0.0944  -0.0696   0.0418
     0.0745   0.0901   0.2243   0.2413   0.2871   0.4163   0.5296   0.7491
     0.8078   0.9733   1.8146   3.0278   4.1386   5.3431   6.5927   8.4924
     9.1087   9.4208

          k = 0.2502 0.0003 0.0000 ( 10868 PWs)   bands (ev):

   -42.8093  -2.5117  -2.1605  -1.7247  -1.7023  -1.6326  -1.5140  -1.3327
    -1.2563  -1.2209  -1.1447  -1.0318  -0.9699  -0.8548  -0.8225  -0.6317
    -0.6235  -0.5274  -0.4775  -0.4141  -0.3549  -0.1963  -0.1148  -0.0969
    -0.0120   0.0603   0.1716   0.2516   0.3733   0.3803   0.4645   0.6446
     0.7803   0.8591   1.5905   2.7044   3.7955   4.9570   6.0721   8.1951
     8.7771   9.1031

          k = 0.2502 0.1447 0.0000 ( 10860 PWs)   bands (ev):

   -42.8071  -2.3395  -2.0719  -1.9118  -1.8194  -1.6963  -1.5825  -1.4703
    -1.3701  -1.1936  -1.0773  -0.9365  -0.7860  -0.6535  -0.6063  -0.5667
    -0.4792  -0.3953  -0.3674  -0.2349  -0.1571  -0.0944  -0.0697   0.0419
     0.0745   0.0901   0.2244   0.2414   0.2871   0.4163   0.5296   0.7491
     0.8078   0.9734   1.8146   3.0278   4.1386   5.3431   6.5927   8.4938
     9.0937   9.4487

          k = 0.2502 0.2890 0.0000 ( 10819 PWs)   bands (ev):

   -42.8015  -1.9783  -1.8674  -1.8041  -1.7419  -1.6746  -1.6167  -1.5178
    -1.3514  -1.3110  -1.1388  -1.0039  -0.9021  -0.7754  -0.7098  -0.5987
    -0.5367  -0.4919  -0.3117  -0.2529  -0.1763  -0.0567   0.0715   0.1572
     0.2346   0.4380   0.4870   0.7214   0.7504   0.8048   0.9570   1.4044
     1.5146   1.9363   2.9016   4.0777   5.1807   6.4759   7.9502   9.3528
    10.0895  10.4569

          k = 0.2502-0.7216 0.0000 ( 10755 PWs)   bands (ev):

   -42.7958  -1.8722  -1.8453  -1.7072  -1.6592  -1.5354  -1.4494  -1.3948
    -1.2699  -1.2397  -1.2293  -1.0691  -0.9711  -0.8714  -0.7664  -0.6164
    -0.5563  -0.4639  -0.3755  -0.2804  -0.1210  -0.0600   0.0861   0.1543
     0.2431   0.3279   0.5005   0.7988   0.9678   1.0056   1.1275   3.3922
     3.6108   4.0946   4.9396   5.9429   7.0382   8.2321   8.7281   9.6558
     9.8215   9.9586

          k = 0.2502-0.5773 0.0000 ( 10783 PWs)   bands (ev):

   -42.7936  -1.9285  -1.7227  -1.6865  -1.6174  -1.5545  -1.4781  -1.4318
    -1.3708  -1.2228  -1.1731  -1.1048  -0.9771  -0.8330  -0.8149  -0.6003
    -0.5042  -0.4224  -0.3022  -0.1699  -0.1062  -0.0365   0.1687   0.2806
     0.3506   0.4206   0.6539   0.7727   0.8330   0.9310   0.9725   5.4477
     6.1326   6.2246   6.5299   6.8069   7.0311   7.6096   7.8757   8.5000
     9.0730   9.3116

          k = 0.2502-0.4329 0.0000 ( 10756 PWs)   bands (ev):

   -42.7958  -1.8722  -1.8453  -1.7072  -1.6592  -1.5354  -1.4494  -1.3948
    -1.2699  -1.2397  -1.2293  -1.0691  -0.9712  -0.8714  -0.7665  -0.6163
    -0.5563  -0.4641  -0.3755  -0.2804  -0.1211  -0.0600   0.0862   0.1544
     0.2431   0.3279   0.5005   0.7988   0.9679   1.0056   1.1275   3.3922
     3.6108   4.0946   4.9396   5.9430   7.0383   8.2321   8.7282   9.6558
     9.8214   9.9584

          k = 0.2502-0.2885 0.0000 ( 10818 PWs)   bands (ev):

   -42.8015  -1.9783  -1.8674  -1.8042  -1.7418  -1.6746  -1.6167  -1.5178
    -1.3514  -1.3110  -1.1389  -1.0039  -0.9021  -0.7753  -0.7098  -0.5988
    -0.5367  -0.4919  -0.3117  -0.2531  -0.1763  -0.0566   0.0714   0.1572
     0.2346   0.4380   0.4870   0.7215   0.7504   0.8048   0.9569   1.4045
     1.5146   1.9363   2.9016   4.0777   5.1808   6.4758   7.9502   9.3509
    10.1235  10.3850

          k = 0.3754-0.2162 0.0000 ( 10791 PWs)   bands (ev):

   -42.7991  -2.2289  -2.1914  -2.0793  -2.0356  -1.9651  -1.8549  -1.8189
    -1.6941  -1.4312  -1.1063  -0.9196  -0.7832  -0.7031  -0.5759  -0.4735
    -0.2822  -0.1544  -0.0678   0.2180   0.2732   0.5041   0.5331   0.6851
     0.7102   0.7124   0.7905   0.8094   0.8513   0.8963   1.0326   1.5403
     1.8906   2.3495   3.3036   4.4572   5.6487   7.0204   8.2670   8.7916
     9.2526   9.9125

          k = 0.3754-0.0718 0.0000 ( 10820 PWs)   bands (ev):

   -42.8014  -1.9797  -1.8683  -1.8048  -1.7443  -1.6758  -1.6185  -1.5183
    -1.3559  -1.3156  -1.1476  -1.0083  -0.9094  -0.7743  -0.7052  -0.5896
    -0.5369  -0.4583  -0.2959  -0.2380  -0.1714  -0.0561   0.0724   0.1620
     0.2340   0.4410   0.4816   0.7185   0.7509   0.8037   0.9578   1.3877
     1.5033   1.9123   2.8691   4.0374   5.1890   6.5062   7.9546   9.3580
    10.1220  10.4216

          k = 0.3754 0.0726 0.0000 ( 10819 PWs)   bands (ev):

   -42.8014  -1.9797  -1.8683  -1.8048  -1.7443  -1.6758  -1.6185  -1.5183
    -1.3560  -1.3156  -1.1475  -1.0083  -0.9093  -0.7743  -0.7052  -0.5896
    -0.5369  -0.4583  -0.2959  -0.2379  -0.1714  -0.0561   0.0724   0.1619
     0.2340   0.4409   0.4816   0.7185   0.7509   0.8037   0.9578   1.3877
     1.5033   1.9123   2.8691   4.0373   5.1890   6.5062   7.9546   9.3589
    10.1060  10.4626

          k = 0.3754 0.2170 0.0000 ( 10794 PWs)   bands (ev):

   -42.7991  -2.2289  -2.1914  -2.0794  -2.0356  -1.9651  -1.8550  -1.8190
    -1.6941  -1.4312  -1.1062  -0.9195  -0.7832  -0.7030  -0.5759  -0.4734
    -0.2823  -0.1545  -0.0677   0.2180   0.2731   0.5041   0.5331   0.6851
     0.7101   0.7124   0.7905   0.8095   0.8513   0.8964   1.0326   1.5404
     1.8906   2.3494   3.3036   4.4572   5.6486   7.0205   8.2667   8.7918
     9.2532   9.9139

          k = 0.3754-0.7937 0.0000 ( 10771 PWs)   bands (ev):

   -42.7958  -2.1658  -2.0956  -2.0230  -1.9310  -1.8557  -1.8079  -1.7192
    -1.5806  -1.4673  -1.2204  -1.0316  -0.8297  -0.7333  -0.6429  -0.5056
    -0.4088  -0.1349  -0.0363   0.0217   0.2749   0.3432   0.4501   0.5313
     0.6240   0.6759   0.7317   0.8307   0.9461   0.9885   1.1262   3.5009
     3.7500   4.1443   4.7919   5.5814   6.4797   7.1266   7.9774   8.2778
     8.7018   9.3808

          k = 0.3754-0.6493 0.0000 ( 10768 PWs)   bands (ev):

   -42.7935  -1.9311  -1.7205  -1.6934  -1.6159  -1.5541  -1.4892  -1.4334
    -1.3716  -1.2214  -1.1703  -1.1026  -0.9511  -0.8326  -0.8008  -0.6021
    -0.5053  -0.4259  -0.2999  -0.1680  -0.1060  -0.0379   0.1683   0.2831
     0.3438   0.4073   0.6539   0.7718   0.8325   0.9318   0.9729   5.4886
     6.1055   6.1503   6.3039   6.6581   7.1194   7.7054   8.0054   8.3801
     9.0546   9.3823

          k = 0.3754-0.5049 0.0000 ( 10783 PWs)   bands (ev):

   -42.7936  -1.9310  -1.7205  -1.6934  -1.6159  -1.5541  -1.4893  -1.4336
    -1.3716  -1.2214  -1.1703  -1.1026  -0.9511  -0.8327  -0.8008  -0.6021
    -0.5054  -0.4259  -0.3000  -0.1679  -0.1060  -0.0379   0.1682   0.2830
     0.3438   0.4073   0.6539   0.7717   0.8325   0.9317   0.9729   5.4886
     6.1046   6.1502   6.3043   6.6587   7.1200   7.7057   8.0049   8.3798
     9.0536   9.3824

          k = 0.3754-0.3605 0.0000 ( 10760 PWs)   bands (ev):

   -42.7958  -2.1658  -2.0957  -2.0230  -1.9310  -1.8557  -1.8079  -1.7192
    -1.5805  -1.4673  -1.2205  -1.0316  -0.8298  -0.7333  -0.6430  -0.5056
    -0.4088  -0.1349  -0.0363   0.0217   0.2749   0.3433   0.4501   0.5314
     0.6241   0.6760   0.7317   0.8308   0.9461   0.9885   1.1262   3.5008
     3.7500   4.1444   4.7919   5.5815   6.4801   7.1268   7.9767   8.2776
     8.7016   9.3799

          k =-0.5005 0.2882 0.0000 ( 10736 PWs)   bands (ev):

   -42.7957  -2.3603  -2.3059  -2.2165  -2.1686  -2.0528  -1.9820  -1.9604
    -1.8374  -1.5586  -1.1767  -0.9986  -0.8752  -0.7730  -0.5288  -0.3986
    -0.1840  -0.0854   0.1321   0.2323   0.5100   0.6221   0.7301   0.8818
     0.9680   0.9859   1.0090   1.0127   1.0916   1.1219   1.1707   3.7199
     4.2147   4.5573   4.6927   5.0387   5.2980   5.4887   7.6647   8.1661
     8.6632   8.8659

          k =-0.5005 0.4326 0.0000 ( 10762 PWs)   bands (ev):

   -42.7958  -2.1662  -2.0961  -2.0234  -1.9314  -1.8570  -1.8087  -1.7189
    -1.5819  -1.4705  -1.2259  -1.0322  -0.8296  -0.7300  -0.6480  -0.5068
    -0.4002  -0.1226  -0.0442   0.0253   0.2923   0.3412   0.4491   0.5305
     0.6245   0.6776   0.7315   0.8335   0.9461   0.9880   1.1266   3.4903
     3.7346   4.1259   4.7757   5.5757   6.4788   7.1260   7.9910   8.3770
     8.7231   9.3643

          k =-0.5005 0.5770 0.0000 ( 10755 PWs)   bands (ev):

   -42.7957  -1.8749  -1.8463  -1.7079  -1.6717  -1.5409  -1.4500  -1.3986
    -1.2729  -1.2479  -1.2283  -1.0714  -0.9580  -0.8733  -0.7460  -0.6016
    -0.5568  -0.4395  -0.3711  -0.2815  -0.1215  -0.0602   0.1004   0.1497
     0.2422   0.3227   0.4943   0.7941   0.9665   1.0063   1.1279   3.3832
     3.5928   4.0522   4.8587   5.8564   7.0466   8.3973   8.9874   9.5865
     9.7618   9.9043

          k =-0.5005 0.7214 0.0000 ( 10771 PWs)   bands (ev):

   -42.7958  -2.1662  -2.0960  -2.0234  -1.9314  -1.8571  -1.8087  -1.7190
    -1.5820  -1.4706  -1.2258  -1.0322  -0.8296  -0.7301  -0.6480  -0.5067
    -0.4002  -0.1224  -0.0442   0.0252   0.2924   0.3411   0.4491   0.5305
     0.6244   0.6776   0.7315   0.8334   0.9461   0.9880   1.1266   3.4905
     3.7346   4.1258   4.7757   5.5755   6.4785   7.1258   7.9916   8.3775
     8.7232   9.3652

          k =-0.5005-0.2893 0.0000 ( 10756 PWs)   bands (ev):

   -42.7958  -2.3603  -2.3059  -2.2165  -2.1686  -2.0529  -1.9821  -1.9605
    -1.8375  -1.5587  -1.1767  -0.9986  -0.8752  -0.7729  -0.5289  -0.3987
    -0.1841  -0.0856   0.1320   0.2323   0.5100   0.6221   0.7301   0.8817
     0.9680   0.9859   1.0090   1.0126   1.0916   1.1219   1.1707   3.7204
     4.2153   4.5550   4.6933   5.0387   5.2979   5.4886   7.6651   8.1669
     8.6635   8.8662

     the Fermi energy is     3.9121 ev

!    total energy              =    -520.63252540 Ry
     estimated scf accuracy    <       0.00000020 Ry
     smearing contrib. (-TS)   =      -0.00196854 Ry
     internal energy E=F+TS    =    -520.63055686 Ry

     The total energy is F=E-TS. E is the sum of the following terms:
     one-electron contribution =   -6614.57680086 Ry
     hartree contribution      =    3358.67833168 Ry
     xc contribution           =    -137.63364228 Ry
     ewald contribution        =    2873.09403344 Ry
     DFT-D3 Dispersion         =      -0.19247884 Ry

     convergence has been achieved in   7 iterations

     negative rho (up, down):  8.031E-06 0.000E+00

     Forces acting on atoms (cartesian axes, Ry/au):

     atom    1 type  2   force =    -0.00002152    0.00001114    0.00049896
     atom    2 type  2   force =    -0.00023508   -0.00018083    0.00539194
     atom    3 type  2   force =     0.00004126    0.00015915   -0.00090891
     atom    4 type  2   force =     0.00013315    0.00014089   -0.00305344
     atom    5 type  2   force =    -0.00007581   -0.00013065    0.00172508
     atom    6 type  2   force =     0.00052252    0.00047277   -0.00952477
     atom    7 type  1   force =    -0.00036452   -0.00047246    0.00587114
     The non-local contrib.  to forces
     atom    1 type  2   force =     0.00268309    0.00167878   -0.06135937
     atom    2 type  2   force =     0.00148817    0.00073446   -0.03403986
     atom    3 type  2   force =    -0.00008767    0.00053418    0.00202543
     atom    4 type  2   force =     0.00005971    0.00066496   -0.00146056
     atom    5 type  2   force =    -0.00052254   -0.00292292    0.01170816
     atom    6 type  2   force =    -0.00099343   -0.00008611    0.01737991
     atom    7 type  1   force =    -0.00230185   -0.00167048    0.05195786
     The ionic contribution  to forces
     atom    1 type  2   force =     7.13469461    4.12444768 -163.16473610
     atom    2 type  2   force =     4.43654266    2.56478233 -101.46011155
     atom    3 type  2   force =     1.71208708    0.98965878  -39.15405102
     atom    4 type  2   force =    -1.01209750   -0.58511087   23.14573862
     atom    5 type  2   force =    -3.75790270   -2.17150994   85.94103922
     atom    6 type  2   force =    -6.44189542   -3.72535374  147.36134658
     atom    7 type  1   force =    -2.07142874   -1.19691423   47.33077425
     The local contribution  to forces
     atom    1 type  2   force =    -7.13695776   -4.12586115  163.21649570
     atom    2 type  2   force =    -4.43806649   -2.56558260  101.49495263
     atom    3 type  2   force =    -1.71191245   -0.99001489   39.15005711
     atom    4 type  2   force =     1.01218798    0.58459979  -23.14775831
     atom    5 type  2   force =     3.75826757    2.17430290  -85.94916499
     atom    6 type  2   force =     6.44332554    3.72583035 -147.38587275
     atom    7 type  1   force =     2.07324508    1.19803146  -47.37416079
     The core correction contribution to forces
     atom    1 type  2   force =    -0.00024298   -0.00013812    0.00555703
     atom    2 type  2   force =     0.00000358   -0.00000013   -0.00008144
     atom    3 type  2   force =     0.00000075    0.00000841   -0.00001657
     atom    4 type  2   force =    -0.00002451   -0.00001168    0.00055670
     atom    5 type  2   force =     0.00003834   -0.00000896   -0.00088208
     atom    6 type  2   force =    -0.00017271   -0.00007120    0.00361253
     atom    7 type  1   force =     0.00000000    0.00000000    0.00000000
     The Hubbard contrib.    to forces
     atom    1 type  2   force =     0.00000000    0.00000000    0.00000000
     atom    2 type  2   force =     0.00000000    0.00000000    0.00000000
     atom    3 type  2   force =     0.00000000    0.00000000    0.00000000
     atom    4 type  2   force =     0.00000000    0.00000000    0.00000000
     atom    5 type  2   force =     0.00000000    0.00000000    0.00000000
     atom    6 type  2   force =     0.00000000    0.00000000    0.00000000
     atom    7 type  1   force =     0.00000000    0.00000000    0.00000000
     The SCF correction term to forces
     atom    1 type  2   force =     0.00001955    0.00000929   -0.00045614
     atom    2 type  2   force =    -0.00004303   -0.00002270    0.00100263
     atom    3 type  2   force =    -0.00002401   -0.00001526    0.00055128
     atom    4 type  2   force =     0.00000613   -0.00000278   -0.00011141
     atom    5 type  2   force =    -0.00005394   -0.00003492    0.00124564
     atom    6 type  2   force =     0.00006574    0.00004144   -0.00152253
     atom    7 type  1   force =     0.00001294    0.00000409   -0.00031458

     DFT-D3 dispersion contribution to forces:
     atom    1 type  2   force =    -0.00021792   -0.00012588    0.00498372
     atom    2 type  2   force =    -0.00015985   -0.00009273    0.00365542
     atom    3 type  2   force =    -0.00002233   -0.00001260    0.00051075
     atom    4 type  2   force =     0.00000144    0.00000093   -0.00003259
     atom    5 type  2   force =     0.00009758    0.00004265   -0.00223498
     atom    6 type  2   force =     0.00019291    0.00011148   -0.00448261
     atom    7 type  1   force =     0.00010817    0.00007616   -0.00239971

     Total force =     0.012987     Total SCF correction =     0.002348
     SCF correction compared to forces is large: reduce conv_thr to get better values


     Computing stress (Cartesian axis) and pressure


     negative rho (up, down):  8.031E-06 0.000E+00
          total   stress  (Ry/bohr**3)                   (kbar)     P=      -12.02
  -0.00004829   0.00000008   0.00000213           -7.10        0.01        0.31
   0.00000008  -0.00009354  -0.00000168            0.01      -13.76       -0.25
   0.00000213  -0.00000168  -0.00010332            0.31       -0.25      -15.20

     Energy error            =      2.0E-04 Ry
     Gradient error          =      9.5E-03 Ry/Bohr

     number of scf cycles    =   2
     number of bfgs steps    =   1

     energy             old  =    -520.6323209597 Ry
     energy             new  =    -520.6325254036 Ry

     CASE: energy            _new < energy            _old


     WARNING: bfgs curvature condition failed, Theta= 0.914
     new trust radius        =       0.0113319068 bohr
     new conv_thr            =       0.0000000204 Ry


ATOMIC_POSITIONS (angstrom)
Ag            1.9495881073        0.5683440434       10.1270313100
Ag            1.8439650879        2.1833349948       12.5424953624
Ag            3.1914761523        1.2863951310       14.9434479940
Ag            1.6393245547        0.3890426268       17.2225006303
Ag            1.5351117980        2.0047577896       19.6055787878
Ag            2.8815313371        1.1072500154       22.0344739281
Li            1.3433899811        1.0556548850       24.0532887669



     Writing config-only to output data dir ./Ag_mp-124_111_bridge_0/Ag_mp-124_111_bridge_0.save/
     NEW-OLD atomic charge density approx. for the potential

     negative rho (up, down):  8.312E-06 0.000E+00

     total cpu time spent up to now is       21.7 secs

     per-process dynamical memory:   187.7 Mb

     Self-consistent Calculation

     iteration #  1     ecut=    55.00 Ry     beta= 0.30
     Davidson diagonalization with overlap
     ethr =  1.00E-06,  avg # of iterations =  3.5

     Threshold (ethr) on eigenvalues was too large:
     Diagonalizing with lowered threshold

     Davidson diagonalization with overlap
     ethr =  8.01E-08,  avg # of iterations =  2.5

     negative rho (up, down):  8.241E-06 0.000E+00

     total cpu time spent up to now is       22.7 secs

     total energy              =    -520.63267885 Ry
     estimated scf accuracy    <       0.00006674 Ry

     iteration #  2     ecut=    55.00 Ry     beta= 0.30
     Davidson diagonalization with overlap
     ethr =  9.67E-08,  avg # of iterations =  2.2

     negative rho (up, down):  8.340E-06 0.000E+00

     total cpu time spent up to now is       23.1 secs

     total energy              =    -520.63257119 Ry
     estimated scf accuracy    <       0.00488165 Ry

     iteration #  3     ecut=    55.00 Ry     beta= 0.30
     Davidson diagonalization with overlap
     ethr =  9.67E-08,  avg # of iterations =  2.1

     negative rho (up, down):  8.569E-06 0.000E+00

     total cpu time spent up to now is       23.4 secs

     total energy              =    -520.63268086 Ry
     estimated scf accuracy    <       0.00143688 Ry

     iteration #  4     ecut=    55.00 Ry     beta= 0.30
     Davidson diagonalization with overlap
     ethr =  9.67E-08,  avg # of iterations =  1.1

     negative rho (up, down):  8.528E-06 0.000E+00

     total cpu time spent up to now is       23.8 secs

     total energy              =    -520.63270486 Ry
     estimated scf accuracy    <       0.00005409 Ry

     iteration #  5     ecut=    55.00 Ry     beta= 0.30
     Davidson diagonalization with overlap
     ethr =  7.84E-08,  avg # of iterations =  1.1

     negative rho (up, down):  8.368E-06 0.000E+00

     total cpu time spent up to now is       24.1 secs

     total energy              =    -520.63270676 Ry
     estimated scf accuracy    <       0.00000901 Ry

     iteration #  6     ecut=    55.00 Ry     beta= 0.30
     Davidson diagonalization with overlap
     ethr =  1.31E-08,  avg # of iterations =  1.1

     negative rho (up, down):  8.284E-06 0.000E+00

     total cpu time spent up to now is       24.4 secs

     total energy              =    -520.63270746 Ry
     estimated scf accuracy    <       0.00000026 Ry

     iteration #  7     ecut=    55.00 Ry     beta= 0.30
     Davidson diagonalization with overlap
     ethr =  3.76E-10,  avg # of iterations =  3.5

     negative rho (up, down):  8.205E-06 0.000E+00

     total cpu time spent up to now is       24.8 secs

     total energy              =    -520.63270752 Ry
     estimated scf accuracy    <       0.00000013 Ry

     iteration #  8     ecut=    55.00 Ry     beta= 0.30
     Davidson diagonalization with overlap
     ethr =  1.87E-10,  avg # of iterations =  1.8

     negative rho (up, down):  8.139E-06 0.000E+00

     total cpu time spent up to now is       25.1 secs

     total energy              =    -520.63270754 Ry
     estimated scf accuracy    <       0.00000003 Ry

     iteration #  9     ecut=    55.00 Ry     beta= 0.30
     Davidson diagonalization with overlap
     ethr =  3.82E-11,  avg # of iterations =  2.3

     negative rho (up, down):  8.130E-06 0.000E+00

     total cpu time spent up to now is       25.5 secs

     End of self-consistent calculation

          k = 0.0000 0.0000 0.0000 ( 10919 PWs)   bands (ev):

   -42.8251  -3.6342  -3.1658  -2.5899  -2.3702  -2.3042  -2.2020  -1.0164
    -0.8385  -0.8310  -0.8283  -0.8107  -0.7649  -0.7621  -0.7455  -0.7387
    -0.6797  -0.6683  -0.6494  -0.6478  -0.5489  -0.5488  -0.1686   0.0975
     0.1405   0.1916   0.1931   0.2206   0.2354   0.4566   0.4690   0.7078
     0.7160   0.9174   0.9194   1.0166   2.2373   3.4751   3.9366   7.1966
     7.7886   8.1368

          k = 0.0000 0.1444 0.0000 ( 10876 PWs)   bands (ev):

   -42.8218  -3.2236  -2.7750  -2.2252  -2.1174  -2.0256  -1.8956  -1.1634
    -1.0478  -0.9628  -0.8977  -0.8679  -0.8148  -0.7035  -0.6653  -0.6330
    -0.5976  -0.5382  -0.5369  -0.5047  -0.4882  -0.4544  -0.3467  -0.2054
    -0.0286   0.0437   0.0986   0.1282   0.2348   0.2738   0.4560   0.4710
     0.7209   0.9353   0.9540   1.8977   2.9551   4.0087   4.7656   7.5294
     8.1278   8.4337

          k = 0.0000 0.2888 0.0000 ( 10871 PWs)   bands (ev):

   -42.8142  -2.3440  -2.0793  -1.9201  -1.8420  -1.7054  -1.6024  -1.4709
    -1.3747  -1.1900  -1.0765  -0.9296  -0.7699  -0.6489  -0.6037  -0.5745
    -0.4647  -0.3823  -0.3822  -0.2306  -0.1702  -0.0915  -0.0799   0.0374
     0.0760   0.0962   0.2234   0.2447   0.2815   0.4094   0.5250   0.7433
     0.8275   0.9713   1.8612   3.1051   4.1413   5.2998   6.5986   8.4683
     9.1017   9.4204

          k = 0.0000 0.4332 0.0000 ( 10791 PWs)   bands (ev):

   -42.8062  -2.2345  -2.1941  -2.0838  -2.0494  -1.9720  -1.8843  -1.8168
    -1.6974  -1.4214  -1.0999  -0.9179  -0.7836  -0.7116  -0.5500  -0.4903
    -0.2764  -0.1776  -0.0531   0.2053   0.2857   0.5046   0.5252   0.6892
     0.7107   0.7142   0.7880   0.8093   0.8489   0.8946   1.0308   1.5270
     1.8776   2.3582   3.3950   4.6687   5.7139   6.9363   8.4729   8.7958
     9.1523   9.5689

          k = 0.0000-0.5775 0.0000 ( 10736 PWs)   bands (ev):

   -42.8029  -2.3649  -2.3086  -2.2202  -2.1822  -2.0554  -2.0148  -1.9590
    -1.8394  -1.5489  -1.1689  -1.0000  -0.8760  -0.7816  -0.5460  -0.3536
    -0.2077  -0.0794   0.1536   0.2186   0.5178   0.6128   0.7367   0.8794
     0.9716   0.9859   1.0075   1.0155   1.0898   1.1213   1.1690   3.5146
     3.9979   4.5363   4.9644   5.2646   5.4801   6.6131   7.0548   7.7296
     8.3029   8.8766

          k = 0.1251-0.0721 0.0000 ( 10876 PWs)   bands (ev):

   -42.8218  -3.2231  -2.7729  -2.2180  -2.1157  -2.0211  -1.8949  -1.1646
    -1.0473  -0.9610  -0.8948  -0.8680  -0.8221  -0.7071  -0.6652  -0.6391
    -0.5972  -0.5437  -0.5387  -0.5054  -0.4872  -0.4592  -0.3462  -0.2232
    -0.0145   0.0390   0.0917   0.1463   0.2332   0.2845   0.4528   0.4796
     0.7267   0.9345   0.9412   1.8711   2.9432   4.0248   4.7693   7.5358
     8.1288   8.4351

          k = 0.1251 0.0723 0.0000 ( 10875 PWs)   bands (ev):

   -42.8218  -3.2231  -2.7729  -2.2180  -2.1157  -2.0211  -1.8949  -1.1646
    -1.0473  -0.9610  -0.8949  -0.8680  -0.8221  -0.7071  -0.6651  -0.6391
    -0.5972  -0.5437  -0.5387  -0.5053  -0.4872  -0.4592  -0.3462  -0.2232
    -0.0145   0.0390   0.0918   0.1463   0.2332   0.2845   0.4528   0.4796
     0.7267   0.9345   0.9412   1.8711   2.9432   4.0248   4.7693   7.5362
     8.1243   8.4436

          k = 0.1251 0.2167 0.0000 ( 10868 PWs)   bands (ev):

   -42.8164  -2.5159  -2.1666  -1.7272  -1.7148  -1.6423  -1.5200  -1.3347
    -1.2644  -1.2231  -1.1470  -1.0306  -0.9713  -0.8523  -0.8205  -0.6278
    -0.6210  -0.5295  -0.4829  -0.4085  -0.3614  -0.1918  -0.1277  -0.0912
    -0.0054   0.0675   0.1874   0.2358   0.3660   0.3782   0.4634   0.6375
     0.7922   0.8585   1.6222   2.7502   3.7966   4.9252   6.0685   8.1798
     8.7749   9.1014

          k = 0.1251 0.3611 0.0000 ( 10820 PWs)   bands (ev):

   -42.8085  -1.9828  -1.8685  -1.8094  -1.7510  -1.6803  -1.6184  -1.5398
    -1.3617  -1.3107  -1.1438  -1.0042  -0.9037  -0.7789  -0.7006  -0.6054
    -0.5361  -0.4667  -0.3061  -0.2561  -0.1726  -0.0508   0.0705   0.1505
     0.2307   0.4471   0.4802   0.7259   0.7482   0.8029   0.9563   1.3978
     1.5105   1.9427   2.9366   4.1471   5.1821   6.4467   7.9883   9.3341
    10.0653  10.4128

          k = 0.1251-0.6496 0.0000 ( 10762 PWs)   bands (ev):

   -42.8029  -2.1671  -2.1006  -2.0270  -1.9387  -1.8606  -1.8103  -1.7434
    -1.5832  -1.4604  -1.2194  -1.0342  -0.8461  -0.7342  -0.6339  -0.4980
    -0.4190  -0.1234  -0.0508   0.0304   0.2820   0.3344   0.4592   0.5348
     0.6261   0.6777   0.7309   0.8393   0.9452   0.9888   1.1252   3.4315
     3.6994   4.1544   4.9527   5.9246   6.7886   7.1778   7.6128   8.0960
     8.7090   9.1895

          k = 0.1251-0.5052 0.0000 ( 10760 PWs)   bands (ev):

   -42.8029  -2.1671  -2.1006  -2.0270  -1.9387  -1.8606  -1.8103  -1.7434
    -1.5832  -1.4604  -1.2194  -1.0342  -0.8461  -0.7343  -0.6340  -0.4979
    -0.4191  -0.1232  -0.0508   0.0304   0.2820   0.3344   0.4592   0.5348
     0.6261   0.6777   0.7309   0.8394   0.9451   0.9888   1.1252   3.4315
     3.6994   4.1544   4.9527   5.9246   6.7886   7.1777   7.6132   8.0959
     8.7088   9.1894

          k = 0.1251-0.3608 0.0000 ( 10818 PWs)   bands (ev):

   -42.8085  -1.9828  -1.8685  -1.8094  -1.7510  -1.6803  -1.6184  -1.5398
    -1.3616  -1.3108  -1.1438  -1.0042  -0.9036  -0.7789  -0.7005  -0.6054
    -0.5361  -0.4667  -0.3061  -0.2561  -0.1725  -0.0508   0.0705   0.1505
     0.2307   0.4472   0.4802   0.7259   0.7482   0.8029   0.9563   1.3978
     1.5105   1.9427   2.9366   4.1471   5.1822   6.4467   7.9883   9.3331
    10.0803  10.3855

          k = 0.1251-0.2164 0.0000 ( 10863 PWs)   bands (ev):

   -42.8163  -2.5159  -2.1666  -1.7273  -1.7148  -1.6423  -1.5200  -1.3347
    -1.2643  -1.2231  -1.1470  -1.0307  -0.9712  -0.8523  -0.8205  -0.6278
    -0.6209  -0.5295  -0.4830  -0.4085  -0.3614  -0.1917  -0.1279  -0.0912
    -0.0054   0.0676   0.1875   0.2358   0.3660   0.3782   0.4634   0.6375
     0.7922   0.8585   1.6222   2.7502   3.7966   4.9251   6.0685   8.1785
     8.7931   9.0684

          k = 0.2502-0.1441 0.0000 ( 10871 PWs)   bands (ev):

   -42.8141  -2.3430  -2.0753  -1.9148  -1.8216  -1.6987  -1.5834  -1.4731
    -1.3717  -1.1959  -1.0784  -0.9369  -0.7847  -0.6541  -0.6072  -0.5701
    -0.4794  -0.3957  -0.3709  -0.2348  -0.1590  -0.0943  -0.0711   0.0408
     0.0737   0.0903   0.2236   0.2407   0.2870   0.4163   0.5297   0.7482
     0.8082   0.9729   1.8157   3.0259   4.1363   5.3411   6.5914   8.4935
     9.1100   9.4227

          k = 0.2502 0.0003 0.0000 ( 10868 PWs)   bands (ev):

   -42.8163  -2.5154  -2.1641  -1.7275  -1.7047  -1.6356  -1.5152  -1.3334
    -1.2590  -1.2226  -1.1475  -1.0332  -0.9702  -0.8548  -0.8226  -0.6316
    -0.6251  -0.5296  -0.4781  -0.4130  -0.3563  -0.1971  -0.1156  -0.0974
    -0.0137   0.0601   0.1703   0.2523   0.3733   0.3802   0.4632   0.6443
     0.7793   0.8590   1.5915   2.7031   3.7933   4.9546   6.0707   8.1964
     8.7783   9.1052

          k = 0.2502 0.1447 0.0000 ( 10860 PWs)   bands (ev):

   -42.8140  -2.3430  -2.0752  -1.9148  -1.8216  -1.6987  -1.5834  -1.4732
    -1.3717  -1.1959  -1.0784  -0.9369  -0.7846  -0.6541  -0.6072  -0.5700
    -0.4794  -0.3955  -0.3709  -0.2347  -0.1590  -0.0943  -0.0711   0.0408
     0.0737   0.0903   0.2236   0.2407   0.2871   0.4163   0.5297   0.7483
     0.8081   0.9729   1.8157   3.0259   4.1363   5.3412   6.5914   8.4948
     9.0950   9.4507

          k = 0.2502 0.2890 0.0000 ( 10819 PWs)   bands (ev):

   -42.8084  -1.9816  -1.8706  -1.8069  -1.7448  -1.6776  -1.6197  -1.5194
    -1.3516  -1.3136  -1.1392  -1.0051  -0.9025  -0.7772  -0.7108  -0.6006
    -0.5375  -0.4918  -0.3119  -0.2536  -0.1758  -0.0563   0.0710   0.1581
     0.2347   0.4373   0.4862   0.7208   0.7492   0.8037   0.9562   1.4032
     1.5132   1.9374   2.9024   4.0741   5.1785   6.4748   7.9490   9.3531
    10.0911  10.4585

          k = 0.2502-0.7216 0.0000 ( 10755 PWs)   bands (ev):

   -42.8028  -1.8750  -1.8492  -1.7104  -1.6623  -1.5378  -1.4525  -1.3977
    -1.2728  -1.2402  -1.2310  -1.0708  -0.9708  -0.8728  -0.7677  -0.6156
    -0.5573  -0.4640  -0.3761  -0.2799  -0.1197  -0.0604   0.0881   0.1557
     0.2420   0.3265   0.5001   0.7991   0.9671   1.0049   1.1265   3.3907
     3.6094   4.0957   4.9381   5.9383   7.0360   8.2320   8.7297   9.6539
     9.8195   9.9560

          k = 0.2502-0.5773 0.0000 ( 10783 PWs)   bands (ev):

   -42.8006  -1.9318  -1.7262  -1.6900  -1.6206  -1.5568  -1.4811  -1.4370
    -1.3704  -1.2245  -1.1754  -1.1074  -0.9765  -0.8317  -0.8155  -0.5999
    -0.5053  -0.4241  -0.3015  -0.1699  -0.1062  -0.0344   0.1682   0.2799
     0.3526   0.4220   0.6518   0.7725   0.8322   0.9306   0.9716   5.4484
     6.1303   6.2223   6.5287   6.8084   7.0302   7.6064   7.8715   8.4965
     9.0695   9.3084

          k = 0.2502-0.4329 0.0000 ( 10756 PWs)   bands (ev):

   -42.8028  -1.8750  -1.8492  -1.7105  -1.6623  -1.5377  -1.4525  -1.3977
    -1.2729  -1.2402  -1.2310  -1.0708  -0.9708  -0.8728  -0.7678  -0.6155
    -0.5573  -0.4641  -0.3761  -0.2799  -0.1197  -0.0604   0.0882   0.1558
     0.2420   0.3265   0.5002   0.7992   0.9672   1.0049   1.1265   3.3907
     3.6094   4.0957   4.9380   5.9384   7.0361   8.2320   8.7298   9.6539
     9.8194   9.9558

          k = 0.2502-0.2885 0.0000 ( 10818 PWs)   bands (ev):

   -42.8084  -1.9816  -1.8706  -1.8070  -1.7448  -1.6776  -1.6197  -1.5194
    -1.3516  -1.3136  -1.1393  -1.0050  -0.9025  -0.7772  -0.7108  -0.6007
    -0.5375  -0.4918  -0.3118  -0.2537  -0.1758  -0.0563   0.0710   0.1581
     0.2347   0.4373   0.4862   0.7209   0.7492   0.8038   0.9562   1.4032
     1.5133   1.9375   2.9024   4.0741   5.1785   6.4747   7.9490   9.3512
    10.1251  10.3867

          k = 0.3754-0.2162 0.0000 ( 10791 PWs)   bands (ev):

   -42.8060  -2.2315  -2.1949  -2.0825  -2.0376  -1.9687  -1.8555  -1.8221
    -1.6947  -1.4318  -1.1054  -0.9198  -0.7839  -0.7064  -0.5756  -0.4769
    -0.2823  -0.1551  -0.0683   0.2191   0.2735   0.5031   0.5323   0.6848
     0.7093   0.7115   0.7895   0.8087   0.8503   0.8948   1.0320   1.5387
     1.8894   2.3512   3.3046   4.4536   5.6473   7.0196   8.2667   8.7906
     9.2512   9.9140

          k = 0.3754-0.0718 0.0000 ( 10820 PWs)   bands (ev):

   -42.8084  -1.9830  -1.8715  -1.8077  -1.7473  -1.6788  -1.6215  -1.5199
    -1.3561  -1.3180  -1.1478  -1.0091  -0.9099  -0.7762  -0.7064  -0.5916
    -0.5375  -0.4592  -0.2963  -0.2387  -0.1713  -0.0558   0.0718   0.1627
     0.2342   0.4402   0.4808   0.7181   0.7498   0.8027   0.9570   1.3868
     1.5020   1.9141   2.8703   4.0343   5.1872   6.5050   7.9534   9.3586
    10.1234  10.4231

          k = 0.3754 0.0726 0.0000 ( 10819 PWs)   bands (ev):

   -42.8083  -1.9830  -1.8715  -1.8076  -1.7473  -1.6787  -1.6215  -1.5199
    -1.3561  -1.3181  -1.1478  -1.0092  -0.9099  -0.7762  -0.7063  -0.5915
    -0.5375  -0.4592  -0.2963  -0.2387  -0.1713  -0.0559   0.0718   0.1627
     0.2343   0.4402   0.4808   0.7180   0.7498   0.8027   0.9570   1.3869
     1.5020   1.9141   2.8703   4.0343   5.1872   6.5050   7.9534   9.3595
    10.1073  10.4641

          k = 0.3754 0.2170 0.0000 ( 10794 PWs)   bands (ev):

   -42.8060  -2.2315  -2.1948  -2.0826  -2.0376  -1.9686  -1.8555  -1.8221
    -1.6947  -1.4318  -1.1054  -0.9198  -0.7840  -0.7064  -0.5756  -0.4769
    -0.2824  -0.1551  -0.0682   0.2191   0.2733   0.5031   0.5322   0.6848
     0.7092   0.7115   0.7895   0.8088   0.8503   0.8948   1.0320   1.5388
     1.8894   2.3511   3.3046   4.4536   5.6472   7.0196   8.2664   8.7908
     9.2519   9.9155

          k = 0.3754-0.7937 0.0000 ( 10771 PWs)   bands (ev):

   -42.8028  -2.1691  -2.0985  -2.0262  -1.9337  -1.8582  -1.8115  -1.7201
    -1.5810  -1.4680  -1.2201  -1.0339  -0.8316  -0.7346  -0.6440  -0.5057
    -0.4099  -0.1353  -0.0356   0.0221   0.2744   0.3438   0.4501   0.5308
     0.6243   0.6749   0.7306   0.8305   0.9449   0.9879   1.1252   3.4991
     3.7487   4.1453   4.7903   5.5793   6.4789   7.1252   7.9767   8.2771
     8.7005   9.3823

          k = 0.3754-0.6493 0.0000 ( 10768 PWs)   bands (ev):

   -42.8005  -1.9344  -1.7241  -1.6971  -1.6191  -1.5564  -1.4921  -1.4382
    -1.3712  -1.2233  -1.1729  -1.1050  -0.9509  -0.8317  -0.8011  -0.6017
    -0.5066  -0.4277  -0.2995  -0.1679  -0.1060  -0.0355   0.1677   0.2823
     0.3471   0.4079   0.6519   0.7716   0.8317   0.9314   0.9720   5.4901
     6.1038   6.1478   6.3022   6.6575   7.1194   7.7045   8.0021   8.3789
     9.0527   9.3796

          k = 0.3754-0.5049 0.0000 ( 10783 PWs)   bands (ev):

   -42.8005  -1.9343  -1.7240  -1.6971  -1.6191  -1.5564  -1.4922  -1.4383
    -1.3712  -1.2233  -1.1730  -1.1050  -0.9509  -0.8318  -0.8011  -0.6017
    -0.5066  -0.4277  -0.2996  -0.1679  -0.1060  -0.0355   0.1677   0.2822
     0.3471   0.4078   0.6518   0.7715   0.8317   0.9313   0.9720   5.4901
     6.1030   6.1477   6.3026   6.6582   7.1200   7.7049   8.0015   8.3786
     9.0517   9.3797

          k = 0.3754-0.3605 0.0000 ( 10760 PWs)   bands (ev):

   -42.8027  -2.1691  -2.0985  -2.0262  -1.9338  -1.8582  -1.8115  -1.7201
    -1.5809  -1.4680  -1.2201  -1.0339  -0.8316  -0.7346  -0.6440  -0.5056
    -0.4099  -0.1353  -0.0356   0.0221   0.2743   0.3439   0.4501   0.5308
     0.6244   0.6750   0.7306   0.8305   0.9449   0.9880   1.1252   3.4990
     3.7487   4.1454   4.7903   5.5794   6.4793   7.1254   7.9761   8.2769
     8.7003   9.3814

          k =-0.5005 0.2882 0.0000 ( 10736 PWs)   bands (ev):

   -42.8027  -2.3632  -2.3089  -2.2199  -2.1709  -2.0557  -1.9827  -1.9640
    -1.8377  -1.5588  -1.1752  -0.9996  -0.8760  -0.7764  -0.5323  -0.3971
    -0.1845  -0.0854   0.1320   0.2338   0.5094   0.6215   0.7303   0.8810
     0.9679   0.9851   1.0075   1.0118   1.0899   1.1214   1.1692   3.7175
     4.2131   4.5571   4.6928   5.0384   5.2968   5.4876   7.6643   8.1651
     8.6618   8.8672

          k =-0.5005 0.4326 0.0000 ( 10762 PWs)   bands (ev):

   -42.8027  -2.1695  -2.0989  -2.0266  -1.9342  -1.8595  -1.8123  -1.7199
    -1.5823  -1.4711  -1.2255  -1.0345  -0.8315  -0.7313  -0.6488  -0.5069
    -0.4014  -0.1234  -0.0433   0.0259   0.2916   0.3417   0.4491   0.5298
[...]
     1.5211   1.9545   2.9386   4.1276   5.2567   6.5760   8.0259   9.4046
    10.1672  10.3731

          k = 0.1251-0.2164 0.0000 ( 10863 PWs)   bands (ev):

   -42.7341  -2.5805  -2.2023  -1.7729  -1.7390  -1.6666  -1.5332  -1.3455
    -1.2820  -1.2495  -1.1742  -1.0252  -0.9779  -0.8412  -0.8135  -0.6499
    -0.6064  -0.5556  -0.4517  -0.3936  -0.3572  -0.1973  -0.1337  -0.0755
     0.0021   0.0733   0.1956   0.2601   0.3801   0.3965   0.4828   0.6673
     0.8119   0.9119   1.6470   2.7789   3.8592   5.0213   6.1490   8.2073
     8.8480   9.0962

          k = 0.2502-0.1441 0.0000 ( 10871 PWs)   bands (ev):

   -42.7318  -2.3953  -2.1149  -1.9455  -1.8495  -1.7320  -1.6112  -1.4881
    -1.3822  -1.2170  -1.1044  -0.9408  -0.7587  -0.6644  -0.6268  -0.5547
    -0.4685  -0.4048  -0.3829  -0.2281  -0.1858  -0.0833  -0.0747   0.0380
     0.0990   0.1003   0.2297   0.2556   0.2997   0.4361   0.5572   0.7715
     0.8352   1.0087   1.8739   3.1055   4.2167   5.4278   6.6894   8.5233
     9.1687   9.4337

          k = 0.2502 0.0003 0.0000 ( 10868 PWs)   bands (ev):

   -42.7341  -2.5742  -2.2053  -1.7556  -1.7395  -1.6636  -1.5319  -1.3535
    -1.2962  -1.2377  -1.1741  -1.0274  -0.9802  -0.8484  -0.8140  -0.6311
    -0.6139  -0.5660  -0.4389  -0.3696  -0.3556  -0.2144  -0.1134  -0.0844
    -0.0154   0.0653   0.1723   0.2597   0.3848   0.3974   0.4932   0.6548
     0.8070   0.8768   1.6613   2.7954   3.8746   5.0298   6.1656   8.2092
     8.8277   9.1304

          k = 0.2502 0.1447 0.0000 ( 10860 PWs)   bands (ev):

   -42.7318  -2.3953  -2.1151  -1.9454  -1.8500  -1.7322  -1.6111  -1.4880
    -1.3820  -1.2169  -1.1044  -0.9406  -0.7577  -0.6643  -0.6271  -0.5552
    -0.4683  -0.4053  -0.3829  -0.2282  -0.1860  -0.0831  -0.0743   0.0380
     0.0988   0.1003   0.2297   0.2551   0.2995   0.4362   0.5575   0.7714
     0.8358   1.0088   1.8743   3.1051   4.2169   5.4276   6.6892   8.5250
     9.1454   9.4749

          k = 0.2502 0.2890 0.0000 ( 10819 PWs)   bands (ev):

   -42.7261  -2.0269  -1.9317  -1.8432  -1.7772  -1.6986  -1.6457  -1.5363
    -1.3704  -1.3226  -1.1422  -1.0361  -0.9049  -0.8186  -0.7144  -0.6136
    -0.5307  -0.4700  -0.2989  -0.2683  -0.1633  -0.0334   0.0987   0.1787
     0.2481   0.4643   0.4961   0.7457   0.7689   0.8210   1.0071   1.4044
     1.5134   1.9470   2.9343   4.1275   5.2645   6.5818   8.0473   9.4125
    10.1199  10.4807

          k = 0.2502-0.7216 0.0000 ( 10755 PWs)   bands (ev):

   -42.7204  -1.9254  -1.8943  -1.7557  -1.6956  -1.5785  -1.4833  -1.4218
    -1.3189  -1.2599  -1.2467  -1.1020  -0.9685  -0.8903  -0.7782  -0.6038
    -0.5577  -0.4641  -0.3632  -0.2671  -0.0801  -0.0229   0.1178   0.1848
     0.2571   0.3529   0.5256   0.8290   0.9914   1.0280   1.1675   3.3869
     3.6023   4.0927   4.9313   5.9580   7.1301   8.3572   8.7812   9.6880
     9.8396  10.0198

          k = 0.2502-0.5773 0.0000 ( 10783 PWs)   bands (ev):

   -42.7182  -1.9754  -1.7795  -1.7290  -1.6761  -1.6081  -1.5241  -1.4606
    -1.3921  -1.2560  -1.1926  -1.1201  -0.9685  -0.8516  -0.8097  -0.5984
    -0.5274  -0.4267  -0.2860  -0.1158  -0.0890   0.0089   0.2040   0.3031
     0.3748   0.4425   0.6739   0.8022   0.8472   0.9764   1.0091   5.4846
     6.0780   6.1364   6.3536   6.7210   7.1710   7.7803   8.0098   8.4671
     8.9974   9.3505

          k = 0.2502-0.4329 0.0000 ( 10756 PWs)   bands (ev):

   -42.7204  -1.9253  -1.8942  -1.7559  -1.6961  -1.5784  -1.4833  -1.4214
    -1.3196  -1.2599  -1.2467  -1.1017  -0.9685  -0.8901  -0.7781  -0.6039
    -0.5574  -0.4641  -0.3630  -0.2672  -0.0794  -0.0234   0.1173   0.1853
     0.2569   0.3530   0.5253   0.8289   0.9914   1.0282   1.1675   3.3869
     3.6023   4.0925   4.9311   5.9580   7.1299   8.3576   8.7813   9.6879
     9.8398  10.0198

          k = 0.2502-0.2885 0.0000 ( 10818 PWs)   bands (ev):

   -42.7261  -2.0270  -1.9317  -1.8432  -1.7772  -1.6985  -1.6459  -1.5361
    -1.3705  -1.3227  -1.1424  -1.0360  -0.9050  -0.8184  -0.7144  -0.6134
    -0.5306  -0.4701  -0.2986  -0.2683  -0.1632  -0.0333   0.0986   0.1787
     0.2483   0.4641   0.4956   0.7454   0.7693   0.8211   1.0070   1.4044
     1.5136   1.9467   2.9341   4.1278   5.2643   6.5820   8.0474   9.4100
    10.1709  10.3759

          k = 0.3754-0.2162 0.0000 ( 10791 PWs)   bands (ev):

   -42.7238  -2.2754  -2.2384  -2.1360  -2.0564  -1.9910  -1.8727  -1.8482
    -1.6918  -1.4420  -1.0907  -0.9089  -0.8119  -0.7064  -0.5777  -0.5084
    -0.2919  -0.1716  -0.0634   0.2179   0.2892   0.5324   0.5367   0.6929
     0.7159   0.7357   0.7987   0.8238   0.8639   0.9099   1.0723   1.5339
     1.8934   2.3647   3.3611   4.5519   5.7452   7.1005   8.3754   8.8033
     9.2277   9.8798

          k = 0.3754-0.0718 0.0000 ( 10820 PWs)   bands (ev):

   -42.7261  -2.0369  -1.9421  -1.8379  -1.7816  -1.6965  -1.6506  -1.5355
    -1.3644  -1.3253  -1.1499  -1.0155  -0.9233  -0.7892  -0.7064  -0.6071
    -0.5083  -0.4713  -0.3061  -0.2392  -0.1655  -0.0421   0.0866   0.1787
     0.2399   0.4533   0.4938   0.7465   0.7599   0.8263   0.9677   1.4060
     1.5124   1.9440   2.9410   4.1371   5.2748   6.5898   8.0584   9.4122
    10.1559  10.3919

          k = 0.3754 0.0726 0.0000 ( 10819 PWs)   bands (ev):

   -42.7261  -2.0369  -1.9421  -1.8379  -1.7817  -1.6965  -1.6507  -1.5354
    -1.3645  -1.3255  -1.1498  -1.0153  -0.9233  -0.7896  -0.7059  -0.6072
    -0.5078  -0.4709  -0.3064  -0.2393  -0.1655  -0.0416   0.0866   0.1781
     0.2396   0.4535   0.4940   0.7463   0.7599   0.8264   0.9677   1.4060
     1.5122   1.9442   2.9412   4.1370   5.2749   6.5896   8.0584   9.4138
    10.1206  10.4806

          k = 0.3754 0.2170 0.0000 ( 10794 PWs)   bands (ev):

   -42.7238  -2.2753  -2.2385  -2.1361  -2.0566  -1.9911  -1.8730  -1.8479
    -1.6918  -1.4421  -1.0897  -0.9088  -0.8120  -0.7061  -0.5784  -0.5088
    -0.2918  -0.1718  -0.0636   0.2182   0.2892   0.5326   0.5366   0.6929
     0.7159   0.7357   0.7989   0.8237   0.8640   0.9097   1.0724   1.5338
     1.8929   2.3654   3.3617   4.5516   5.7457   7.1002   8.3758   8.8031
     9.2272   9.8784

          k = 0.3754-0.7937 0.0000 ( 10771 PWs)   bands (ev):

   -42.7205  -2.2279  -2.1460  -2.0669  -1.9554  -1.8858  -1.8382  -1.7297
    -1.5865  -1.4756  -1.2174  -1.0697  -0.8423  -0.7464  -0.6384  -0.5024
    -0.4328  -0.1387  -0.0359   0.0330   0.2895   0.3467   0.4661   0.5494
     0.6497   0.7019   0.7545   0.8633   0.9713   1.0072   1.1700   3.4709
     3.7245   4.1555   4.8508   5.6836   6.5669   7.1357   7.9493   8.2985
     8.7782   9.3894

          k = 0.3754-0.6493 0.0000 ( 10768 PWs)   bands (ev):

   -42.7182  -2.0001  -1.7851  -1.7311  -1.6632  -1.5955  -1.5162  -1.4576
    -1.3883  -1.2620  -1.1969  -1.1239  -0.9649  -0.8292  -0.8075  -0.5917
    -0.5112  -0.4258  -0.2967  -0.1450  -0.0924  -0.0061   0.1877   0.3091
     0.3877   0.4493   0.6744   0.7948   0.8787   0.9555   1.0097   5.4853
     6.0983   6.1423   6.3277   6.6855   7.1225   7.6816   8.0737   8.5174
     9.0634   9.3492

          k = 0.3754-0.5049 0.0000 ( 10783 PWs)   bands (ev):

   -42.7182  -2.0000  -1.7851  -1.7313  -1.6633  -1.5956  -1.5167  -1.4573
    -1.3882  -1.2621  -1.1968  -1.1237  -0.9646  -0.8294  -0.8078  -0.5920
    -0.5112  -0.4260  -0.2962  -0.1446  -0.0925  -0.0066   0.1877   0.3088
     0.3878   0.4493   0.6742   0.7948   0.8787   0.9554   1.0097   5.4853
     6.0981   6.1427   6.3275   6.6842   7.1226   7.6813   8.0743   8.5172
     9.0642   9.3492

          k = 0.3754-0.3605 0.0000 ( 10760 PWs)   bands (ev):

   -42.7205  -2.2279  -2.1460  -2.0668  -1.9552  -1.8859  -1.8382  -1.7296
    -1.5865  -1.4754  -1.2180  -1.0696  -0.8423  -0.7462  -0.6380  -0.5026
    -0.4324  -0.1387  -0.0357   0.0326   0.2896   0.3468   0.4662   0.5492
     0.6498   0.7018   0.7544   0.8632   0.9714   1.0074   1.1700   3.4711
     3.7250   4.1547   4.8505   5.6833   6.5657   7.1354   7.9502   8.2997
     8.7778   9.3921

          k =-0.5005 0.2882 0.0000 ( 10736 PWs)   bands (ev):

   -42.7204  -2.4113  -2.3560  -2.2689  -2.1886  -2.0765  -2.0022  -1.9886
    -1.8352  -1.5683  -1.1586  -0.9947  -0.8959  -0.7830  -0.5641  -0.3874
    -0.1985  -0.0934   0.1469   0.2396   0.5256   0.6405   0.7802   0.9075
     0.9728   0.9891   1.0102   1.0390   1.0960   1.1375   1.1933   3.6411
     4.1005   4.5879   4.9269   5.1505   5.3397   5.4707   7.7251   8.1187
     8.5928   8.9439

          k =-0.5005 0.4326 0.0000 ( 10762 PWs)   bands (ev):

   -42.7205  -2.2296  -2.1488  -2.0680  -1.9539  -1.8877  -1.8385  -1.7311
    -1.5868  -1.4774  -1.2380  -1.0599  -0.8378  -0.7283  -0.6395  -0.5208
    -0.3968  -0.1310  -0.0476   0.0386   0.2906   0.3472   0.4658   0.5526
     0.6478   0.6962   0.7498   0.8720   0.9723   1.0197   1.1326   3.4722
     3.7228   4.1518   4.8503   5.6861   6.5696   7.1421   7.9502   8.2998
     8.7776   9.3915

          k =-0.5005 0.5770 0.0000 ( 10755 PWs)   bands (ev):

   -42.7204  -1.9506  -1.9255  -1.7369  -1.6972  -1.5688  -1.4813  -1.4279
    -1.2896  -1.2600  -1.2480  -1.1002  -0.9708  -0.8705  -0.7652  -0.6047
    -0.5519  -0.4562  -0.3671  -0.2626  -0.0958  -0.0251   0.1312   0.1711
     0.2548   0.3483   0.5199   0.8321   1.0058   1.0321   1.1310   3.3861
     3.5975   4.0861   4.9265   5.9579   7.1388   8.3643   8.7839   9.7171
     9.8253  10.0242

          k =-0.5005 0.7214 0.0000 ( 10771 PWs)   bands (ev):

   -42.7205  -2.2297  -2.1487  -2.0680  -1.9540  -1.8877  -1.8385  -1.7311
    -1.5869  -1.4776  -1.2376  -1.0599  -0.8381  -0.7283  -0.6391  -0.5209
    -0.3972  -0.1316  -0.0468   0.0385   0.2909   0.3470   0.4657   0.5526
     0.6475   0.6964   0.7496   0.8722   0.9722   1.0197   1.1325   3.4720
     3.7223   4.1525   4.8507   5.6864   6.5709   7.1424   7.9492   8.2988
     8.7782   9.3888

          k =-0.5005-0.2893 0.0000 ( 10756 PWs)   bands (ev):

   -42.7205  -2.4113  -2.3559  -2.2689  -2.1888  -2.0765  -2.0023  -1.9886
    -1.8353  -1.5685  -1.1573  -0.9951  -0.8959  -0.7828  -0.5644  -0.3885
    -0.1987  -0.0930   0.1468   0.2398   0.5258   0.6405   0.7799   0.9074
     0.9726   0.9893   1.0103   1.0390   1.0958   1.1375   1.1933   3.6404
     4.0988   4.5901   4.9267   5.1512   5.3409   5.4717   7.7245   8.1163
     8.5926   8.9420

     the Fermi energy is     3.9399 ev

!    total energy              =    -520.63766301 Ry
     estimated scf accuracy    <          2.8E-09 Ry
     smearing contrib. (-TS)   =      -0.00152663 Ry
     internal energy E=F+TS    =    -520.63613638 Ry

     The total energy is F=E-TS. E is the sum of the following terms:
     one-electron contribution =   -6764.99531067 Ry
     hartree contribution      =    3433.91747022 Ry
     xc contribution           =    -137.66532678 Ry
     ewald contribution        =    2948.30244155 Ry
     DFT-D3 Dispersion         =      -0.19541070 Ry

     convergence has been achieved in   8 iterations

     negative rho (up, down):  9.675E-06 0.000E+00

     Forces acting on atoms (cartesian axes, Ry/au):

     atom    1 type  2   force =     0.00002022    0.00032607   -0.00034383
     atom    2 type  2   force =    -0.00005572    0.00041951    0.00032742
     atom    3 type  2   force =     0.00005458    0.00055214   -0.00054646
     atom    4 type  2   force =     0.00003568   -0.00011657    0.00073279
     atom    5 type  2   force =    -0.00009525   -0.00094068   -0.00024300
     atom    6 type  2   force =     0.00003969    0.00005934   -0.00030210
     atom    7 type  1   force =     0.00000080   -0.00029981    0.00037518
     The non-local contrib.  to forces
     atom    1 type  2   force =     0.00278638    0.00173929   -0.06359859
     atom    2 type  2   force =     0.00163612    0.00098909   -0.03762406
     atom    3 type  2   force =    -0.00013433    0.00023892    0.00313249
     atom    4 type  2   force =    -0.00004580    0.00013225    0.00152227
     atom    5 type  2   force =    -0.00042232   -0.00069026    0.00913046
     atom    6 type  2   force =    -0.00031399   -0.00068457    0.00834775
     atom    7 type  1   force =    -0.00230082   -0.00144996    0.05268718
     The ionic contribution  to forces
     atom    1 type  2   force =     7.21302885    4.17933503 -164.95335386
     atom    2 type  2   force =     4.50038734    2.61253010 -102.94417225
     atom    3 type  2   force =     1.73197627    1.01401501  -39.59050601
     atom    4 type  2   force =    -1.03414106   -0.60132934   23.68845943
     atom    5 type  2   force =    -3.80104597   -2.22023766   86.86623261
     atom    6 type  2   force =    -6.52083131   -3.77273119  149.14554165
     atom    7 type  1   force =    -2.08937412   -1.21158194   47.78779843
     The local contribution  to forces
     atom    1 type  2   force =    -7.21532191   -4.18039531  165.00581072
     atom    2 type  2   force =    -4.50188414   -2.61291315  102.97748164
     atom    3 type  2   force =    -1.73175703   -1.01359126   39.58627422
     atom    4 type  2   force =     1.03422428    0.60105679  -23.68898981
     atom    5 type  2   force =     3.80122797    2.21974278  -86.87276660
     atom    6 type  2   force =     6.52109502    3.77339104 -149.15197135
     atom    7 type  1   force =     2.09156084    1.21268412  -47.83750950
     The core correction contribution to forces
     atom    1 type  2   force =    -0.00025110   -0.00018828    0.00573281
     atom    2 type  2   force =    -0.00002217   -0.00006953    0.00061701
     atom    3 type  2   force =    -0.00000072   -0.00005654   -0.00007199
     atom    4 type  2   force =    -0.00000818    0.00001317    0.00001249
     atom    5 type  2   force =     0.00003677    0.00012688   -0.00057016
     atom    6 type  2   force =    -0.00010952   -0.00006083    0.00244783
     atom    7 type  1   force =     0.00000000    0.00000000    0.00000000
     The Hubbard contrib.    to forces
     atom    1 type  2   force =     0.00000000    0.00000000    0.00000000
     atom    2 type  2   force =     0.00000000    0.00000000    0.00000000
     atom    3 type  2   force =     0.00000000    0.00000000    0.00000000
     atom    4 type  2   force =     0.00000000    0.00000000    0.00000000
     atom    5 type  2   force =     0.00000000    0.00000000    0.00000000
     atom    6 type  2   force =     0.00000000    0.00000000    0.00000000
     atom    7 type  1   force =     0.00000000    0.00000000    0.00000000
     The SCF correction term to forces
     atom    1 type  2   force =     0.00000647    0.00000583   -0.00014766
     atom    2 type  2   force =     0.00000055    0.00000428   -0.00001527
     atom    3 type  2   force =    -0.00000440    0.00000135    0.00010268
     atom    4 type  2   force =     0.00000060    0.00000020   -0.00001390
     atom    5 type  2   force =    -0.00000002   -0.00000589   -0.00000615
     atom    6 type  2   force =     0.00000180   -0.00001047   -0.00002599
     atom    7 type  1   force =     0.00000132   -0.00000070   -0.00002419

     DFT-D3 dispersion contribution to forces:
     atom    1 type  2   force =    -0.00022822   -0.00016916    0.00520766
     atom    2 type  2   force =    -0.00017319   -0.00011996    0.00403525
     atom    3 type  2   force =    -0.00002498   -0.00005401    0.00051706
     atom    4 type  2   force =     0.00000607    0.00001168   -0.00026278
     atom    5 type  2   force =     0.00010857    0.00012479   -0.00226826
     atom    6 type  2   force =     0.00019792    0.00015668   -0.00464708
     atom    7 type  1   force =     0.00011382    0.00004999   -0.00258184

     Total force =     0.001717     Total SCF correction =     0.000185
     SCF correction compared to forces is large: reduce conv_thr to get better values


     Computing stress (Cartesian axis) and pressure


     negative rho (up, down):  9.675E-06 0.000E+00
          total   stress  (Ry/bohr**3)                   (kbar)     P=       -7.23
  -0.00003487   0.00000043   0.00000139           -5.13        0.06        0.20
   0.00000043  -0.00004807  -0.00001113            0.06       -7.07       -1.64
   0.00000139  -0.00001113  -0.00006444            0.20       -1.64       -9.48

     Energy error            =      8.0E-06 Ry
     Gradient error          =      9.4E-04 Ry/Bohr

     bfgs converged in  56 scf cycles and  55 bfgs steps
     (criteria: energy <  1.0E-04 Ry, force <  1.0E-03 Ry/Bohr)

     End of BFGS Geometry Optimization

     Final energy             =    -520.6376630053 Ry

     File ./Ag_mp-124_111_bridge_0/Ag_mp-124_111_bridge_0.bfgs deleted, as requested
Begin final coordinates

ATOMIC_POSITIONS (angstrom)
Ag            1.9467093589        0.5898803706       10.2148522512
Ag            1.8419383111        2.2223036583       12.6156471828
Ag            3.1899815778        1.3582832077       14.9735587766
Ag            1.6394529989        0.5178696798       17.2115636860
Ag            1.5381798077        2.1858350158       19.5789002738
Ag            2.8839041764        1.2994512662       21.9784938635
Li            1.3442207876        0.4211562876       23.9558007456
End final coordinates



     Writing all to output data dir ./Ag_mp-124_111_bridge_0/Ag_mp-124_111_bridge_0.save/

     init_run     :      6.24s CPU      6.63s WALL (       1 calls)
     electrons    :    202.19s CPU    226.43s WALL (      56 calls)
     update_pot   :     27.28s CPU     28.74s WALL (      55 calls)
     forces       :     19.73s CPU     21.03s WALL (      56 calls)
     force_dftd3  :      0.36s CPU      0.60s WALL (      56 calls)
     stress       :     60.44s CPU     62.12s WALL (      56 calls)
     stres_dftd3  :      0.41s CPU      0.65s WALL (      56 calls)

     Called by init_run:
     wfcinit      :      0.42s CPU      0.55s WALL (       1 calls)
     potinit      :      1.99s CPU      2.03s WALL (       1 calls)
     hinit0       :      3.77s CPU      3.92s WALL (       1 calls)

     Called by electrons:
     c_bands      :    165.15s CPU    179.35s WALL (     540 calls)
     sum_band     :     25.93s CPU     28.46s WALL (     540 calls)
     v_of_rho     :      5.18s CPU      7.09s WALL (     554 calls)
     newd         :      4.55s CPU      5.12s WALL (     554 calls)
     mix_rho      :      0.66s CPU      0.68s WALL (     540 calls)
     energy_dftd3 :      0.14s CPU      0.14s WALL (      56 calls)

     Called by c_bands:
     init_us_2    :      1.35s CPU      1.47s WALL (   10737 calls)
     init_us_2:cp :      1.34s CPU      1.46s WALL (   10737 calls)
     cegterg      :    151.42s CPU    160.35s WALL (    4860 calls)

     Called by *egterg:
     cdiaghg      :     36.91s CPU     37.31s WALL (   17359 calls)
     h_psi        :     90.48s CPU     97.55s WALL (   18241 calls)
     s_psi        :      4.21s CPU      4.34s WALL (   18241 calls)
     g_psi        :      0.37s CPU      0.38s WALL (   13372 calls)

     Called by h_psi:
     h_psi:calbec :      7.23s CPU      8.29s WALL (   18241 calls)
     vloc_psi     :     78.93s CPU     84.62s WALL (   18241 calls)
     add_vuspsi   :      4.00s CPU      4.32s WALL (   18241 calls)

     General routines
     calbec       :     13.66s CPU     15.22s WALL (   25621 calls)
     fft          :     10.61s CPU     13.81s WALL (    8587 calls)
     ffts         :      1.96s CPU      2.31s WALL (    1094 calls)
     fftw         :     83.08s CPU     88.91s WALL ( 1229560 calls)
     interpolate  :      2.10s CPU      2.23s WALL (     554 calls)

     Parallel routines

     PWSCF        :   5m17.85s CPU   5m49.30s WALL


   This run was terminated on:   5:31:39  24Jul2025            

=------------------------------------------------------------------------------=
   JOB DONE.
=------------------------------------------------------------------------------=
[1753345899.770290] [rome19:3346265:0]           flush.c:57   UCX  ERROR req 0x2ebdec0: error during flush: Connection reset by remote peer
[1753345899.770319] [rome19:3346265:0]           flush.c:57   UCX  ERROR req 0x2ebdec0: error during flush: Connection reset by remote peer
