
     Program PWSCF v.7.2 starts on 24Jul2025 at  5:23:41 

     This program is part of the open-source Quantum ESPRESSO suite
     for quantum simulation of materials; please cite
         "P. Giannozzi et al., J. Phys.:Condens. Matter 21 395502 (2009);
         "P. Giannozzi et al., J. Phys.:Condens. Matter 29 465901 (2017);
         "P. Giannozzi et al., J. Chem. Phys. 152 154105 (2020);
          URL http://www.quantum-espresso.org", 
     in publications or presentations arising from this work. More details at
     http://www.quantum-espresso.org/quote

     Parallel version (MPI & OpenMP), running on     128 processor cores
     Number of MPI processes:               128
     Threads/MPI process:                     1

     MPI processes distributed on     2 nodes
     237276 MiB available memory on the printing compute node when the environment starts

     Reading input from Ag_mp-124_110_bridge_0.in

     Current dimensions of program PWSCF are:
     Max number of different atomic species (ntypx) = 10
     Max number of k-points (npk) =  40000
     Max angular momentum in pseudopotentials (lmaxx) =  4
     Message from routine iosys:
     restart disabled: needed files not found

     K-points division:     npool     =       4
     R & G space division:  proc/nbgrp/npool/nimage =      32
     Subspace diagonalization in iterative solution of the eigenvalue problem:
     a serial algorithm will be used


     Parallelization info
     --------------------
     sticks:   dense  smooth     PW     G-vecs:    dense   smooth      PW
     Min          52      23      7                12906     3761     603
     Max          53      24      8                12949     3784     633
     Sum        1693     741    227               413923   120671   19731

     Using Slab Decomposition



     bravais-lattice index     =            0
     lattice parameter (alat)  =       5.4844  a.u.
     unit-cell volume          =    2190.9204 (a.u.)^3
     number of atoms/cell      =            7
     number of atomic types    =            2
     number of electrons       =        69.00
     number of Kohn-Sham states=           42
     kinetic-energy cutoff     =      55.0000  Ry
     charge density cutoff     =     500.0000  Ry
     scf convergence threshold =      1.0E-06
     mixing beta               =       0.3000
     number of iterations used =            8  plain     mixing
     energy convergence thresh.=      1.0E-04
     force convergence thresh. =      1.0E-03
     Exchange-correlation= PBE
                           (   1   4   3   4   0   0   0)
     nstep                     =          500


     celldm(1)=   5.484398  celldm(2)=   0.000000  celldm(3)=   0.000000
     celldm(4)=   0.000000  celldm(5)=   0.000000  celldm(6)=   0.000000

     crystal axes: (cart. coord. in units of alat)
               a(1) = (   1.000000   0.000000   0.000000 )  
               a(2) = (   0.000000   1.414214   0.000000 )  
               a(3) = (   0.000000   0.000000   9.391281 )  

     reciprocal axes: (cart. coord. in units 2 pi/alat)
               b(1) = (  1.000000 -0.000000  0.000000 )  
               b(2) = (  0.000000  0.707107  0.000000 )  
               b(3) = ( -0.000000 -0.000000  0.106482 )  


     PseudoPot. # 1 for Li read from file:
     /home/ecastro/trabajo_final/pseudos/Li.pbe-s-rrkjus_psl.1.0.0.UPF
     MD5 check sum: 9f98d2529904d60b716d33989e9bc179
     Pseudo is Ultrasoft, Zval =  3.0
     Generated using &quot;atomic&quot; code by A. Dal Corso  v.6.3MaX
     Using radial grid of 1017 points,  4 beta functions with: 
                l(1) =   0
                l(2) =   0
                l(3) =   1
                l(4) =   1
     Q(r) pseudized with 0 coefficients 


     PseudoPot. # 2 for Ag read from file:
     /home/ecastro/trabajo_final/pseudos/Ag.pbe-n-rrkjus_psl.1.0.0.UPF
     MD5 check sum: 81cdf87bacf708300839c66ee23ce017
     Pseudo is Ultrasoft + core correction, Zval = 11.0
     Generated using &quot;atomic&quot; code by A. Dal Corso  v.6.2.2
     Using radial grid of 1237 points,  6 beta functions with: 
                l(1) =   0
                l(2) =   0
                l(3) =   1
                l(4) =   1
                l(5) =   2
                l(6) =   2
     Q(r) pseudized with 0 coefficients 


     atomic species   valence    mass     pseudopotential
        Li             3.00     6.94100     Li( 1.00)
        Ag            11.00   107.86820     Ag( 1.00)

     No symmetry found



   Cartesian axes

     site n.     atom                  positions (alat units)
         1           Ag  tau(   1) = (   0.7499986   1.0606605   5.4610461  )
         2           Ag  tau(   2) = (   0.2499984   0.3535538   5.9308985  )
         3           Ag  tau(   3) = (   0.7500000   1.0606602   4.4456403  )
         4           Ag  tau(   4) = (   0.2500000   0.3535534   4.9456403  )
         5           Ag  tau(   5) = (   0.7500000   1.0606602   3.4456403  )
         6           Ag  tau(   6) = (   0.2500000   0.3535534   3.9456403  )
         7           Li  tau(   7) = (   0.7499984   1.0606606   6.6200266  )

     --------------------------------------------
     DFT-D3 Dispersion Correction (no 3-body):
     --------------------------------------------
       Reference C6 values for interpolation: 

         atom   Coordination number   C6
         Li         0.000          2326.89
         Li         0.987           170.64
         Ag         0.000           853.49
         Ag         0.968           537.23

       Values used:

         atom   Coordination number  R0_AB[au]  C6      C8
         Ag         8.253            3.147    537.23  47741.54
         Ag         6.965            3.147    537.23  47741.54
         Ag         8.648            3.147    537.23  47741.54
         Ag         8.652            3.147    537.23  47741.54
         Ag         5.094            3.147    537.23  47741.54
         Ag         7.952            3.147    537.23  47741.54
         Li         3.652            3.303    170.64  12899.87

         Molecular C6 ( Ry / a.u.^6 ) =     22982.53


     number of k points=    34  Methfessel-Paxton smearing, width (Ry)=  0.0300
                       cart. coord. in units 2pi/alat
        k(    1) = (   0.0000000   0.0000000   0.0000000), wk =   0.0312500
        k(    2) = (   0.0000000   0.0883883   0.0000000), wk =   0.0625000
        k(    3) = (   0.0000000   0.1767767   0.0000000), wk =   0.0625000
        k(    4) = (   0.0000000   0.2651650   0.0000000), wk =   0.0625000
        k(    5) = (   0.0000000  -0.3535534   0.0000000), wk =   0.0312500
        k(    6) = (   0.1250000  -0.0000000   0.0000000), wk =   0.0625000
        k(    7) = (   0.1250000   0.0883883   0.0000000), wk =   0.0625000
        k(    8) = (   0.1250000   0.1767767   0.0000000), wk =   0.0625000
        k(    9) = (   0.1250000   0.2651650   0.0000000), wk =   0.0625000
        k(   10) = (   0.1250000  -0.3535534   0.0000000), wk =   0.0625000
        k(   11) = (   0.1250000  -0.2651650   0.0000000), wk =   0.0625000
        k(   12) = (   0.1250000  -0.1767767   0.0000000), wk =   0.0625000
        k(   13) = (   0.1250000  -0.0883883   0.0000000), wk =   0.0625000
        k(   14) = (   0.2500000  -0.0000000   0.0000000), wk =   0.0625000
        k(   15) = (   0.2500000   0.0883883   0.0000000), wk =   0.0625000
        k(   16) = (   0.2500000   0.1767767   0.0000000), wk =   0.0625000
        k(   17) = (   0.2500000   0.2651650   0.0000000), wk =   0.0625000
        k(   18) = (   0.2500000  -0.3535534   0.0000000), wk =   0.0625000
        k(   19) = (   0.2500000  -0.2651650   0.0000000), wk =   0.0625000
        k(   20) = (   0.2500000  -0.1767767   0.0000000), wk =   0.0625000
        k(   21) = (   0.2500000  -0.0883883   0.0000000), wk =   0.0625000
        k(   22) = (   0.3750000  -0.0000000   0.0000000), wk =   0.0625000
        k(   23) = (   0.3750000   0.0883883   0.0000000), wk =   0.0625000
        k(   24) = (   0.3750000   0.1767767   0.0000000), wk =   0.0625000
        k(   25) = (   0.3750000   0.2651650   0.0000000), wk =   0.0625000
        k(   26) = (   0.3750000  -0.3535534   0.0000000), wk =   0.0625000
        k(   27) = (   0.3750000  -0.2651650   0.0000000), wk =   0.0625000
        k(   28) = (   0.3750000  -0.1767767   0.0000000), wk =   0.0625000
        k(   29) = (   0.3750000  -0.0883883   0.0000000), wk =   0.0625000
        k(   30) = (  -0.5000000   0.0000000   0.0000000), wk =   0.0312500
        k(   31) = (  -0.5000000   0.0883883   0.0000000), wk =   0.0625000
        k(   32) = (  -0.5000000   0.1767767   0.0000000), wk =   0.0625000
        k(   33) = (  -0.5000000   0.2651650   0.0000000), wk =   0.0625000
        k(   34) = (  -0.5000000  -0.3535534   0.0000000), wk =   0.0312500

     Dense  grid:   413923 G-vectors     FFT dimensions: (  40,  60, 375)

     Smooth grid:   120671 G-vectors     FFT dimensions: (  25,  40, 243)

     Estimated max dynamical RAM per process >      25.22 MB

     Estimated total dynamical RAM >       2.86 GB
     Cannot read rho : file not found

     Initial potential from superposition of free atoms

     starting charge      68.9930, renormalised to      69.0000

     negative rho (up, down):  4.545E-05 0.000E+00
     Message from routine qexsd_readschema :
     xml data file ./Ag_mp-124_110_bridge_0/Ag_mp-124_110_bridge_0.save/data-file-sch
     Cannot read wfcs: file not found
     Starting wfcs are   59 randomized atomic wfcs

     total cpu time spent up to now is        5.9 secs

     per-process dynamical memory:   176.9 Mb

     Self-consistent Calculation

     iteration #  1     ecut=    55.00 Ry     beta= 0.30
     Davidson diagonalization with overlap
     c_bands:  2 eigenvalues not converged
     c_bands:  1 eigenvalues not converged
     c_bands:  2 eigenvalues not converged
     c_bands:  1 eigenvalues not converged
     ethr =  1.00E-05,  avg # of iterations = 17.4

     negative rho (up, down):  3.707E-05 0.000E+00

     total cpu time spent up to now is       11.0 secs

     total energy              =    -520.48935908 Ry
     estimated scf accuracy    <       0.27271646 Ry

     iteration #  2     ecut=    55.00 Ry     beta= 0.30
     Davidson diagonalization with overlap
     ethr =  3.95E-04,  avg # of iterations =  7.7

     negative rho (up, down):  7.581E-05 0.000E+00

     total cpu time spent up to now is       12.6 secs

     total energy              =    -520.38259794 Ry
     estimated scf accuracy    <       2.39714798 Ry

     iteration #  3     ecut=    55.00 Ry     beta= 0.30
     Davidson diagonalization with overlap
     ethr =  3.95E-04,  avg # of iterations =  8.4

     negative rho (up, down):  9.967E-05 0.000E+00

     total cpu time spent up to now is       13.9 secs

     total energy              =    -520.53007568 Ry
     estimated scf accuracy    <       1.25072674 Ry

     iteration #  4     ecut=    55.00 Ry     beta= 0.30
     Davidson diagonalization with overlap
     ethr =  3.95E-04,  avg # of iterations =  2.0

     negative rho (up, down):  5.072E-05 0.000E+00

     total cpu time spent up to now is       14.6 secs

     total energy              =    -520.56878992 Ry
     estimated scf accuracy    <       0.05789743 Ry

     iteration #  5     ecut=    55.00 Ry     beta= 0.30
     Davidson diagonalization with overlap
     ethr =  8.39E-05,  avg # of iterations =  5.0

     negative rho (up, down):  1.446E-05 0.000E+00

     total cpu time spent up to now is       15.5 secs

     total energy              =    -520.57127068 Ry
     estimated scf accuracy    <       0.00443922 Ry

     iteration #  6     ecut=    55.00 Ry     beta= 0.30
     Davidson diagonalization with overlap
     ethr =  6.43E-06,  avg # of iterations =  9.8

     negative rho (up, down):  1.326E-05 0.000E+00

     total cpu time spent up to now is       16.4 secs

     total energy              =    -520.57176685 Ry
     estimated scf accuracy    <       0.00077924 Ry

     iteration #  7     ecut=    55.00 Ry     beta= 0.30
     Davidson diagonalization with overlap
     ethr =  1.13E-06,  avg # of iterations =  1.9

     negative rho (up, down):  2.001E-05 0.000E+00

     total cpu time spent up to now is       17.1 secs

     total energy              =    -520.57184754 Ry
     estimated scf accuracy    <       0.00019010 Ry

     iteration #  8     ecut=    55.00 Ry     beta= 0.30
     Davidson diagonalization with overlap
     ethr =  2.76E-07,  avg # of iterations =  1.8

     negative rho (up, down):  2.554E-05 0.000E+00

     total cpu time spent up to now is       17.7 secs

     total energy              =    -520.57187064 Ry
     estimated scf accuracy    <       0.00003304 Ry

     iteration #  9     ecut=    55.00 Ry     beta= 0.30
     Davidson diagonalization with overlap
     ethr =  4.79E-08,  avg # of iterations =  3.2

     negative rho (up, down):  2.041E-05 0.000E+00

     total cpu time spent up to now is       18.4 secs

     total energy              =    -520.57187373 Ry
     estimated scf accuracy    <       0.00000862 Ry

     iteration # 10     ecut=    55.00 Ry     beta= 0.30
     Davidson diagonalization with overlap
     ethr =  1.25E-08,  avg # of iterations =  3.0

     negative rho (up, down):  1.779E-05 0.000E+00

     total cpu time spent up to now is       18.9 secs

     total energy              =    -520.57187523 Ry
     estimated scf accuracy    <       0.00000174 Ry

     iteration # 11     ecut=    55.00 Ry     beta= 0.30
     Davidson diagonalization with overlap
     ethr =  2.52E-09,  avg # of iterations =  3.8

     negative rho (up, down):  1.374E-05 0.000E+00

     total cpu time spent up to now is       19.4 secs

     End of self-consistent calculation

          k = 0.0000 0.0000 0.0000 ( 15163 PWs)   bands (ev):

   -45.6482  -5.2345  -4.2128  -4.1111  -3.8796  -3.7583  -3.3625  -3.2931
    -3.0766  -2.9642  -2.9264  -2.7016  -2.6199  -2.5750  -2.5527  -2.4576
    -2.4189  -2.2722  -2.2299  -1.9854  -1.9376  -1.8132  -1.7818  -1.7341
    -1.6753  -1.6628  -1.4773  -1.3222  -1.2988  -1.0416  -1.0347  -0.9269
    -0.7502  -0.6865   0.6829   2.0209   3.5207   4.3009   4.9307   5.6396
     5.7441   5.8240

          k = 0.0000 0.0884 0.0000 ( 15115 PWs)   bands (ev):

   -45.6481  -5.0867  -4.1682  -4.0606  -3.8349  -3.7476  -3.5297  -3.3682
    -3.1203  -2.8823  -2.7246  -2.7124  -2.6592  -2.5419  -2.4574  -2.3853
    -2.3602  -2.2863  -2.1461  -2.1130  -1.9510  -1.8183  -1.7197  -1.7163
    -1.7109  -1.5676  -1.4812  -1.4092  -1.1489  -1.1159  -1.0930  -0.8821
    -0.8046  -0.6625   0.7592   2.1265   3.3026   3.6142   4.6996   5.0591
     5.6881   5.8671

          k = 0.0000 0.1768 0.0000 ( 15114 PWs)   bands (ev):

   -45.6481  -4.6750  -4.1099  -3.9243  -3.8553  -3.7083  -3.6231  -3.4260
    -3.0232  -2.8378  -2.8089  -2.5950  -2.4853  -2.4683  -2.4635  -2.3938
    -2.3318  -2.2862  -2.1106  -2.0555  -1.8284  -1.7885  -1.7462  -1.6514
    -1.5637  -1.4786  -1.4617  -1.3303  -1.2887  -1.1285  -1.0112  -0.9144
    -0.8577  -0.5396   1.0006   1.5913   2.4307   2.9331   3.7504   4.3836
     5.4423   6.0451

          k = 0.0000 0.2652 0.0000 ( 15152 PWs)   bands (ev):

   -45.6481  -4.1606  -4.1179  -3.9921  -3.7957  -3.5863  -3.4682  -3.3736
    -3.0169  -2.8480  -2.7424  -2.5821  -2.5645  -2.5129  -2.4607  -2.3091
    -2.2932  -2.2075  -2.1613  -1.9917  -1.8925  -1.8522  -1.6161  -1.5681
    -1.3914  -1.3192  -1.2710  -1.2438  -1.1577  -1.0671  -1.0182  -0.9127
    -0.8813  -0.0751   0.0450   1.2086   1.5325   2.4766   3.1285   3.6441
     5.2708   6.2009

          k = 0.0000-0.3536 0.0000 ( 15118 PWs)   bands (ev):

   -45.6481  -4.1364  -4.0859  -3.8220  -3.7978  -3.5063  -3.3406  -3.2684
    -3.1476  -2.7418  -2.7102  -2.5981  -2.5926  -2.5807  -2.5529  -2.2297
    -2.2057  -2.1691  -2.1155  -2.0718  -2.0427  -1.8402  -1.7182  -1.2632
    -1.2535  -1.2011  -1.1999  -1.1280  -1.1224  -1.0387  -1.0135  -0.9122
    -0.8949  -0.2625  -0.1923   0.9988   1.2689   1.9579   3.1123   3.4061
     5.0631   6.2715

          k = 0.1250-0.0000 0.0000 ( 15077 PWs)   bands (ev):

   -45.6465  -4.9272  -4.0087  -3.8961  -3.7594  -3.5748  -3.2793  -3.1875
    -3.1305  -3.0941  -2.9439  -2.8054  -2.7496  -2.6677  -2.6164  -2.4294
    -2.4230  -2.2647  -2.2552  -1.9752  -1.9159  -1.8241  -1.6991  -1.6779
    -1.6073  -1.5514  -1.4740  -1.3210  -1.2410  -1.1728  -1.1662  -0.9232
    -0.7743  -0.5396   0.9165   2.2867   3.8306   4.9791   5.2049   5.9275
     6.0219   6.2658

          k = 0.1250 0.0884 0.0000 ( 15111 PWs)   bands (ev):

   -45.6466  -4.7880  -3.9532  -3.8454  -3.7274  -3.5319  -3.4628  -3.2340
    -3.0987  -3.0113  -2.8804  -2.7941  -2.6483  -2.6198  -2.4890  -2.4065
    -2.3972  -2.3496  -2.2380  -2.0431  -1.9555  -1.9187  -1.7737  -1.6642
    -1.6289  -1.5223  -1.4144  -1.3591  -1.1828  -1.1316  -1.1054  -0.9620
    -0.8518  -0.4554   1.0280   2.4097   3.9078   3.9429   5.1017   5.3366
     6.0141   6.1484

          k = 0.1250 0.1768 0.0000 ( 15135 PWs)   bands (ev):

   -45.6467  -4.4018  -3.8897  -3.6865  -3.6782  -3.6309  -3.4255  -3.2481
    -3.0557  -2.9068  -2.8383  -2.7123  -2.6168  -2.4418  -2.4341  -2.3757
    -2.3233  -2.2724  -2.2369  -2.1240  -1.9953  -1.9454  -1.8667  -1.8476
    -1.6067  -1.5290  -1.4005  -1.3122  -1.1236  -1.0863  -1.0741  -0.9804
    -0.9647  -0.1140   1.3621   2.1611   2.7768   3.3290   4.1509   4.7130
     5.6977   6.2805

          k = 0.1250 0.2652 0.0000 ( 15153 PWs)   bands (ev):

   -45.6467  -3.9231  -3.9051  -3.7839  -3.5353  -3.4156  -3.3372  -3.2254
    -3.0301  -2.8379  -2.7927  -2.6452  -2.5835  -2.4716  -2.4305  -2.3839
    -2.3331  -2.2986  -2.2639  -1.9997  -1.9917  -1.9353  -1.8536  -1.7072
    -1.5929  -1.5689  -1.3832  -1.3686  -1.2089  -1.1361  -1.0371  -1.0261
    -0.5827   0.5499   0.5844   1.6990   1.9662   3.0196   3.3837   4.0317
     5.5113   6.4386

          k = 0.1250-0.3536 0.0000 ( 15168 PWs)   bands (ev):

   -45.6467  -3.9279  -3.8731  -3.5449  -3.5278  -3.3319  -3.2519  -3.1946
    -3.0421  -2.7956  -2.7518  -2.6287  -2.6165  -2.5396  -2.5043  -2.4045
    -2.3620  -2.2948  -2.2375  -1.9839  -1.9697  -1.9297  -1.8916  -1.5173
    -1.5137  -1.4735  -1.4386  -1.3493  -1.3181  -1.1419  -1.1228  -0.5969
    -0.5880   0.3186   0.3381   1.6206   1.6939   2.6091   3.3308   3.8030
     5.3302   6.4450

          k = 0.1250-0.2652 0.0000 ( 15153 PWs)   bands (ev):

   -45.6467  -3.9231  -3.9051  -3.7839  -3.5353  -3.4156  -3.3372  -3.2254
    -3.0301  -2.8379  -2.7927  -2.6452  -2.5835  -2.4716  -2.4305  -2.3839
    -2.3331  -2.2986  -2.2639  -1.9997  -1.9917  -1.9353  -1.8536  -1.7072
    -1.5929  -1.5689  -1.3832  -1.3686  -1.2089  -1.1361  -1.0371  -1.0261
    -0.5827   0.5499   0.5844   1.6990   1.9662   3.0196   3.3837   4.0317
     5.5113   6.4386

          k = 0.1250-0.1768 0.0000 ( 15135 PWs)   bands (ev):

   -45.6467  -4.4018  -3.8897  -3.6865  -3.6782  -3.6309  -3.4255  -3.2481
    -3.0557  -2.9068  -2.8383  -2.7123  -2.6168  -2.4418  -2.4341  -2.3757
    -2.3233  -2.2724  -2.2369  -2.1240  -1.9953  -1.9454  -1.8667  -1.8476
    -1.6067  -1.5290  -1.4005  -1.3122  -1.1236  -1.0863  -1.0741  -0.9804
    -0.9647  -0.1140   1.3621   2.1611   2.7768   3.3290   4.1509   4.7130
     5.6977   6.2808

          k = 0.1250-0.0884 0.0000 ( 15111 PWs)   bands (ev):

   -45.6466  -4.7880  -3.9532  -3.8454  -3.7274  -3.5319  -3.4628  -3.2340
    -3.0987  -3.0113  -2.8804  -2.7941  -2.6483  -2.6198  -2.4890  -2.4065
    -2.3972  -2.3496  -2.2380  -2.0431  -1.9555  -1.9187  -1.7737  -1.6642
    -1.6289  -1.5223  -1.4144  -1.3591  -1.1828  -1.1316  -1.1054  -0.9620
    -0.8518  -0.4554   1.0280   2.4097   3.9078   3.9429   5.1017   5.3366
     6.0140   6.1484

          k = 0.2500-0.0000 0.0000 ( 15101 PWs)   bands (ev):

   -45.6430  -4.1724  -3.7934  -3.6561  -3.6341  -3.5785  -3.5167  -3.3478
    -3.1755  -3.1445  -3.0220  -2.9021  -2.7310  -2.5740  -2.3996  -2.3363
    -2.2309  -1.9670  -1.9281  -1.9052  -1.8135  -1.7556  -1.6468  -1.6239
    -1.5580  -1.3789  -1.3617  -1.2989  -1.2394  -1.1840  -1.1180  -0.8117
    -0.7799  -0.0156   1.5874   3.0446   4.6529   5.9755   6.6034   6.7007
     6.8178   7.4378

          k = 0.2500 0.0884 0.0000 ( 15103 PWs)   bands (ev):

   -45.6430  -4.0995  -3.7434  -3.6420  -3.6062  -3.4945  -3.4201  -3.3304
    -3.1686  -3.0544  -3.0096  -2.8555  -2.7149  -2.5390  -2.4316  -2.3158
    -2.2307  -2.1819  -1.9869  -1.9456  -1.8518  -1.7833  -1.6938  -1.6443
    -1.5638  -1.4192  -1.3701  -1.3325  -1.2567  -1.0841  -1.0011  -0.8746
    -0.8371   0.2166   1.7606   3.2037   4.7985   5.2661   6.0375   6.1778
     6.8544   6.9697

          k = 0.2500 0.1768 0.0000 ( 15121 PWs)   bands (ev):

   -45.6431  -3.9249  -3.6518  -3.5851  -3.4908  -3.2758  -3.2543  -3.2074
    -3.0640  -2.9872  -2.9021  -2.8005  -2.6882  -2.5585  -2.4628  -2.3213
    -2.2974  -2.2218  -2.1351  -2.0576  -1.8992  -1.8300  -1.7968  -1.7761
    -1.6775  -1.5214  -1.4636  -1.3740  -1.2181  -1.0386  -0.9932  -0.9603
    -0.5378   0.8036   2.2306   3.3272   3.6996   4.2676   5.2352   5.5301
     6.4612   6.9737

          k = 0.2500 0.2652 0.0000 ( 15099 PWs)   bands (ev):

   -45.6430  -3.7370  -3.5423  -3.4894  -3.4611  -3.0836  -3.0672  -2.9898
    -2.9466  -2.9146  -2.8685  -2.7884  -2.6626  -2.5679  -2.4275  -2.3915
    -2.3179  -2.2409  -2.1477  -2.1367  -1.9752  -1.9399  -1.8975  -1.8606
    -1.7556  -1.6107  -1.5565  -1.4850  -1.1545  -1.1185  -1.0958  -0.7740
     0.2340   1.5710   1.6409   2.6971   2.9693   3.9605   4.4256   5.0707
     6.2276   7.1173

          k = 0.2500-0.3536 0.0000 ( 15096 PWs)   bands (ev):

   -45.6430  -3.6102  -3.5505  -3.4640  -3.3917  -3.1005  -3.0622  -2.9452
    -2.9067  -2.8432  -2.7739  -2.7170  -2.6180  -2.4757  -2.4740  -2.3790
    -2.3780  -2.1888  -2.1863  -2.1213  -2.0438  -1.9899  -1.9708  -1.9119
    -1.8967  -1.6233  -1.5864  -1.3749  -1.3419  -1.1798  -1.1474   0.1869
     0.2290   1.2535   1.2939   2.6959   2.7067   3.9334   4.0254   4.9248
     6.1356   7.0040

          k = 0.2500-0.2652 0.0000 ( 15099 PWs)   bands (ev):

   -45.6430  -3.7370  -3.5423  -3.4894  -3.4611  -3.0836  -3.0672  -2.9898
    -2.9466  -2.9146  -2.8685  -2.7884  -2.6626  -2.5679  -2.4275  -2.3915
    -2.3179  -2.2409  -2.1477  -2.1367  -1.9752  -1.9399  -1.8975  -1.8606
    -1.7556  -1.6107  -1.5565  -1.4850  -1.1545  -1.1185  -1.0958  -0.7740
     0.2340   1.5710   1.6409   2.6971   2.9693   3.9605   4.4256   5.0707
     6.2276   7.1173

          k = 0.2500-0.1768 0.0000 ( 15121 PWs)   bands (ev):

   -45.6431  -3.9249  -3.6518  -3.5851  -3.4908  -3.2758  -3.2543  -3.2074
    -3.0640  -2.9872  -2.9021  -2.8005  -2.6882  -2.5585  -2.4628  -2.3213
    -2.2974  -2.2218  -2.1351  -2.0576  -1.8992  -1.8300  -1.7968  -1.7761
    -1.6775  -1.5214  -1.4636  -1.3740  -1.2181  -1.0386  -0.9932  -0.9603
    -0.5378   0.8036   2.2306   3.3272   3.6996   4.2676   5.2352   5.5301
     6.4611   6.9740

          k = 0.2500-0.0884 0.0000 ( 15103 PWs)   bands (ev):

   -45.6430  -4.0995  -3.7434  -3.6420  -3.6062  -3.4945  -3.4201  -3.3304
    -3.1686  -3.0544  -3.0096  -2.8555  -2.7149  -2.5390  -2.4316  -2.3158
    -2.2307  -2.1819  -1.9869  -1.9456  -1.8518  -1.7833  -1.6938  -1.6443
    -1.5638  -1.4192  -1.3701  -1.3325  -1.2567  -1.0841  -1.0011  -0.8746
    -0.8371   0.2166   1.7606   3.2037   4.7985   5.2661   6.0375   6.1778
     6.8543   6.9697

          k = 0.3750-0.0000 0.0000 ( 15069 PWs)   bands (ev):

   -45.6394  -4.0114  -3.9414  -3.8889  -3.8392  -3.6163  -3.4775  -3.4454
    -3.3576  -3.0869  -2.9264  -2.8600  -2.7160  -2.6712  -2.5176  -2.1808
    -1.9981  -1.7812  -1.7713  -1.7214  -1.5217  -1.5079  -1.3426  -1.2470
    -1.1890  -1.1591  -1.0815  -1.0526  -1.0283  -0.8474  -0.7607  -0.3842
    -0.0554   1.2149   2.6043   4.0480   4.4474   5.0228   5.6129   6.6365
     7.5058   8.0646

          k = 0.3750 0.0884 0.0000 ( 15052 PWs)   bands (ev):

   -45.6394  -3.9478  -3.8871  -3.8350  -3.7879  -3.6650  -3.4363  -3.3922
    -3.3634  -3.1457  -2.9584  -2.7745  -2.5881  -2.5604  -2.4968  -2.1678
    -2.0641  -1.9135  -1.7837  -1.7032  -1.6876  -1.4606  -1.4164  -1.3844
    -1.2399  -1.1795  -1.0848  -1.0391  -1.0160  -0.9045  -0.8494  -0.3915
     0.1510   1.4934   2.8255   4.2483   4.5369   5.1811   5.7574   6.7724
     7.1378   7.5013

          k = 0.3750 0.1768 0.0000 ( 15049 PWs)   bands (ev):

   -45.6393  -3.8510  -3.7928  -3.7270  -3.6678  -3.5567  -3.5163  -3.2417
    -3.2063  -3.0994  -2.9260  -2.6768  -2.5282  -2.4153  -2.4079  -2.3184
    -2.2257  -2.0262  -1.9356  -1.8324  -1.7455  -1.6321  -1.5353  -1.4490
    -1.2763  -1.2423  -1.1391  -1.0700  -1.0234  -0.9758  -0.9501  -0.3215
     0.7145   2.1387   3.3980   4.1251   4.8767   5.1492   5.9821   6.1691
     6.5028   6.9074

          k = 0.3750 0.2652 0.0000 ( 15057 PWs)   bands (ev):

   -45.6393  -3.9090  -3.7627  -3.5718  -3.4629  -3.4089  -3.2542  -3.1043
    -3.0185  -2.9424  -2.8521  -2.7313  -2.6097  -2.5200  -2.4647  -2.4001
    -2.3614  -2.2570  -2.1333  -1.9123  -1.8201  -1.6086  -1.5064  -1.4924
    -1.4289  -1.3111  -1.1557  -1.1232  -1.0554  -1.0304  -1.0053   0.2271
     1.5262   2.7665   2.9529   3.8101   4.3322   5.0464   5.9874   6.3955
     6.5627   7.0176

          k = 0.3750-0.3536 0.0000 ( 15056 PWs)   bands (ev):

   -45.6393  -3.8943  -3.8602  -3.3566  -3.3310  -3.2113  -3.2052  -3.0538
    -3.0273  -2.8066  -2.7686  -2.7659  -2.7293  -2.6888  -2.5826  -2.5236
    -2.4252  -2.1765  -2.1596  -1.9359  -1.8728  -1.6867  -1.6003  -1.4081
    -1.3697  -1.2411  -1.2340  -1.2077  -1.1480  -1.0507  -1.0180   1.3121
     1.3450   2.5741   2.5842   3.8775   4.1282   4.9556   5.7488   6.5276
     7.2657   7.4113

          k = 0.3750-0.2652 0.0000 ( 15057 PWs)   bands (ev):

   -45.6393  -3.9090  -3.7627  -3.5718  -3.4629  -3.4089  -3.2542  -3.1043
    -3.0185  -2.9424  -2.8521  -2.7313  -2.6097  -2.5200  -2.4647  -2.4001
    -2.3614  -2.2570  -2.1333  -1.9123  -1.8201  -1.6086  -1.5064  -1.4924
    -1.4289  -1.3111  -1.1557  -1.1232  -1.0554  -1.0304  -1.0053   0.2271
     1.5262   2.7665   2.9529   3.8101   4.3322   5.0464   5.9876   6.3955
     6.5627   7.0195

          k = 0.3750-0.1768 0.0000 ( 15049 PWs)   bands (ev):

   -45.6393  -3.8510  -3.7928  -3.7270  -3.6678  -3.5567  -3.5163  -3.2417
    -3.2063  -3.0994  -2.9260  -2.6768  -2.5282  -2.4153  -2.4079  -2.3184
    -2.2257  -2.0262  -1.9356  -1.8324  -1.7455  -1.6321  -1.5353  -1.4490
    -1.2763  -1.2423  -1.1391  -1.0700  -1.0234  -0.9758  -0.9501  -0.3215
     0.7145   2.1387   3.3980   4.1251   4.8767   5.1492   5.9821   6.1691
     6.5027   6.9074

          k = 0.3750-0.0884 0.0000 ( 15052 PWs)   bands (ev):

   -45.6394  -3.9478  -3.8871  -3.8350  -3.7879  -3.6650  -3.4363  -3.3922
    -3.3634  -3.1457  -2.9584  -2.7745  -2.5881  -2.5604  -2.4968  -2.1678
    -2.0641  -1.9135  -1.7837  -1.7032  -1.6876  -1.4606  -1.4164  -1.3844
    -1.2399  -1.1795  -1.0848  -1.0391  -1.0160  -0.9045  -0.8494  -0.3915
     0.1510   1.4934   2.8255   4.2483   4.5369   5.1811   5.7574   6.7724
     7.1378   7.5013

          k =-0.5000 0.0000 0.0000 ( 14992 PWs)   bands (ev):

   -45.6378  -4.1227  -4.0596  -4.0047  -3.9609  -3.5343  -3.5311  -3.5048
    -3.4855  -2.9876  -2.9087  -2.8029  -2.7818  -2.7111  -2.6039  -1.9311
    -1.9250  -1.8381  -1.7722  -1.5938  -1.4928  -1.2711  -1.2506  -1.1331
    -1.0845  -1.0797  -1.0582  -0.9197  -0.8528  -0.8099  -0.7836   1.6820
     1.6854   2.2614   2.2906   2.9686   3.1885   3.6489   5.8693   6.2161
     7.1770   8.8738

          k =-0.5000 0.0884 0.0000 ( 14998 PWs)   bands (ev):

   -45.6378  -4.0512  -3.9893  -3.9517  -3.9071  -3.6309  -3.5922  -3.4352
    -3.3866  -3.1514  -3.0140  -2.7397  -2.6428  -2.5614  -2.5131  -1.9570
    -1.8657  -1.8519  -1.8444  -1.6658  -1.6037  -1.3450  -1.2876  -1.1694
    -1.1355  -1.1112  -1.0763  -0.9543  -0.9247  -0.8446  -0.7810   1.7415
     1.7444   2.4081   2.4714   3.1618   3.5048   3.9593   5.9695   6.3589
     7.2817   8.8070

          k =-0.5000 0.1768 0.0000 ( 15026 PWs)   bands (ev):

   -45.6378  -3.8724  -3.8535  -3.8228  -3.7868  -3.7071  -3.6942  -3.3075
    -3.1917  -3.1688  -3.0374  -2.6815  -2.6088  -2.4133  -2.3780  -2.1707
    -2.0574  -1.8437  -1.8377  -1.8242  -1.7525  -1.4585  -1.4318  -1.3357
    -1.3119  -1.1801  -1.1062  -0.9307  -0.8542  -0.8394  -0.7966   1.9098
     1.9171   2.7873   2.9512   3.6916   4.2651   4.7510   6.2605   6.7636
     7.2092   7.6025

          k =-0.5000 0.2652 0.0000 ( 15032 PWs)   bands (ev):

   -45.6378  -3.9622  -3.9273  -3.6194  -3.5969  -3.4740  -3.4630  -3.2006
    -3.0140  -3.0055  -2.9612  -2.7018  -2.6875  -2.4763  -2.4110  -2.3891
    -2.3310  -2.1176  -2.0237  -1.9287  -1.8610  -1.5276  -1.4594  -1.3870
    -1.3214  -1.0384  -0.9826  -0.9564  -0.8601  -0.8421  -0.8112   2.1450
     2.1734   3.3010   3.5751   4.4097   5.1708   5.7152   6.0018   6.2422
     6.5308   6.6763

          k =-0.5000-0.3536 0.0000 ( 15032 PWs)   bands (ev):

   -45.6378  -4.0111  -3.9826  -3.4323  -3.4169  -3.4146  -3.3367  -3.0302
    -3.0096  -2.9654  -2.7718  -2.7679  -2.7462  -2.6588  -2.6445  -2.5477
    -2.4574  -2.0729  -2.0090  -1.9776  -1.9126  -1.6630  -1.5560  -1.2971
    -1.2457  -1.0210  -0.9249  -0.9191  -0.8839  -0.8491  -0.8041   2.2857
     2.3251   3.6294   3.9552   4.8903   5.4343   5.6863   5.8020   5.8805
     6.0859   6.5822

     the Fermi energy is     1.9877 ev

!    total energy              =    -520.57187550 Ry
     estimated scf accuracy    <       0.00000011 Ry
     smearing contrib. (-TS)   =       0.00080643 Ry
     internal energy E=F+TS    =    -520.57268192 Ry

     The total energy is F=E-TS. E is the sum of the following terms:
     one-electron contribution =   -5287.89122582 Ry
     hartree contribution      =    2690.61344609 Ry
     xc contribution           =    -137.47110628 Ry
     ewald contribution        =    2214.34172093 Ry
     DFT-D3 Dispersion         =      -0.16551684 Ry

     convergence has been achieved in  11 iterations

     negative rho (up, down):  1.374E-05 0.000E+00

     Forces acting on atoms (cartesian axes, Ry/au):

     atom    1 type  2   force =     0.00000025    0.00000201   -0.00178580
     atom    2 type  2   force =    -0.00000051    0.00000052    0.02670229
     atom    3 type  2   force =    -0.00000163    0.00000087    0.00459724
     atom    4 type  2   force =     0.00000079   -0.00000105   -0.00248420
     atom    5 type  2   force =     0.00000197   -0.00000163    0.00722370
     atom    6 type  2   force =    -0.00000075   -0.00000057   -0.00682388
     atom    7 type  1   force =    -0.00000012   -0.00000015   -0.02742935
     The non-local contrib.  to forces
     atom    1 type  2   force =     0.00000061    0.00000114   -0.00083697
     atom    2 type  2   force =    -0.00000031    0.00000208    0.03089633
     atom    3 type  2   force =    -0.00000170    0.00000054   -0.02257859
     atom    4 type  2   force =     0.00000063    0.00000119    0.00544118
     atom    5 type  2   force =    -0.00000006   -0.00000146   -0.13334046
     atom    6 type  2   force =    -0.00000041    0.00000020   -0.00546364
     atom    7 type  1   force =    -0.00000063    0.00000050    0.03750986
     The ionic contribution  to forces
     atom    1 type  2   force =     0.00000497   -0.00000518   67.08352235
     atom    2 type  2   force =    -0.00000080   -0.00000012  107.48136847
     atom    3 type  2   force =     0.00000149   -0.00000117  -29.37845697
     atom    4 type  2   force =    -0.00000561    0.00000635   17.45225657
     atom    5 type  2   force =     0.00000000   -0.00000001 -118.18234727
     atom    6 type  2   force =    -0.00000004    0.00000012  -78.14618009
     atom    7 type  1   force =    -0.00000002    0.00000002   33.68983695
     The local contribution  to forces
     atom    1 type  2   force =    -0.00000662    0.00000391  -67.08044534
     atom    2 type  2   force =     0.00000150    0.00000144 -107.47499099
     atom    3 type  2   force =     0.00000009    0.00000083   29.40328458
     atom    4 type  2   force =     0.00000436   -0.00000385  -17.45881770
     atom    5 type  2   force =     0.00000082    0.00000193  118.31339934
     atom    6 type  2   force =    -0.00000148   -0.00000053   78.13663382
     atom    7 type  1   force =     0.00000023    0.00000016  -33.75425571
     The core correction contribution to forces
     atom    1 type  2   force =    -0.00000014   -0.00000004   -0.00083363
     atom    2 type  2   force =    -0.00000001    0.00000004   -0.00517311
     atom    3 type  2   force =     0.00000007   -0.00000004   -0.00038188
     atom    4 type  2   force =    -0.00000002    0.00000011    0.00009317
     atom    5 type  2   force =    -0.00000002    0.00000008    0.00596565
     atom    6 type  2   force =    -0.00000005    0.00000004    0.00273882
     atom    7 type  1   force =     0.00000000    0.00000000    0.00000000
     The Hubbard contrib.    to forces
     atom    1 type  2   force =     0.00000000    0.00000000    0.00000000
     atom    2 type  2   force =     0.00000000    0.00000000    0.00000000
     atom    3 type  2   force =     0.00000000    0.00000000    0.00000000
     atom    4 type  2   force =     0.00000000    0.00000000    0.00000000
     atom    5 type  2   force =     0.00000000    0.00000000    0.00000000
     atom    6 type  2   force =     0.00000000    0.00000000    0.00000000
     atom    7 type  1   force =     0.00000000    0.00000000    0.00000000
     The SCF correction term to forces
     atom    1 type  2   force =     0.00000122    0.00000264    0.00097749
     atom    2 type  2   force =    -0.00000112   -0.00000246    0.00006774
     atom    3 type  2   force =    -0.00000182    0.00000117    0.00003211
     atom    4 type  2   force =     0.00000118   -0.00000437    0.00033651
     atom    5 type  2   force =     0.00000100   -0.00000170   -0.00049041
     atom    6 type  2   force =     0.00000101    0.00000008    0.00021701
     atom    7 type  1   force =     0.00000007   -0.00000036    0.00024106

     DFT-D3 dispersion contribution to forces:
     atom    1 type  2   force =    -0.00000002    0.00000001   -0.00413738
     atom    2 type  2   force =    -0.00000000    0.00000000   -0.00543383
     atom    3 type  2   force =     0.00000000   -0.00000000    0.00273031
     atom    4 type  2   force =     0.00000002   -0.00000001   -0.00176161
     atom    5 type  2   force =    -0.00000000    0.00000000    0.00406918
     atom    6 type  2   force =    -0.00000000    0.00000000    0.00526252
     atom    7 type  1   force =    -0.00000000    0.00000000   -0.00072919

     Total force =     0.039933     Total SCF correction =     0.001192


     Computing stress (Cartesian axis) and pressure


     negative rho (up, down):  1.374E-05 0.000E+00
          total   stress  (Ry/bohr**3)                   (kbar)     P=      -17.46
  -0.00009620  -0.00000000   0.00000000          -14.15       -0.00        0.00
  -0.00000000  -0.00014616  -0.00000000           -0.00      -21.50       -0.00
   0.00000000  -0.00000000  -0.00011375            0.00       -0.00      -16.73


     BFGS Geometry Optimization
     Energy error            =      0.0E+00 Ry
     Gradient error          =      2.7E-02 Ry/Bohr

     number of scf cycles    =   1
     number of bfgs steps    =   0

     energy             new  =    -520.5718754959 Ry

     new trust radius        =       0.0274293477 bohr
     new conv_thr            =       0.0000010000 Ry


ATOMIC_POSITIONS (angstrom)
Ag            2.1766596100        3.0782693811       15.8482025966
Ag            0.7255495079        1.0260906110       17.2268920166
Ag            2.1766627956        3.0782677309       12.9046509667
Ag            0.7255549699        1.0260885333       14.3520127378
Ag            2.1766647041        3.0782664052       10.0038226197
Ag            0.7255541587        1.0260887867       11.4474980676
Li            2.1766588216        3.0782684381       19.1982467900



     Writing config-only to output data dir ./Ag_mp-124_110_bridge_0/Ag_mp-124_110_bridge_0.save/
     NEW-OLD atomic charge density approx. for the potential

     negative rho (up, down):  1.374E-05 0.000E+00

     total cpu time spent up to now is       25.1 secs

     per-process dynamical memory:   187.8 Mb

     Self-consistent Calculation

     iteration #  1     ecut=    55.00 Ry     beta= 0.30
     Davidson diagonalization with overlap
     ethr =  1.00E-06,  avg # of iterations =  4.6

     negative rho (up, down):  1.356E-05 0.000E+00

     total cpu time spent up to now is       27.7 secs

     total energy              =    -520.57336860 Ry
     estimated scf accuracy    <       0.00012282 Ry

     iteration #  2     ecut=    55.00 Ry     beta= 0.30
     Davidson diagonalization with overlap
     ethr =  1.78E-07,  avg # of iterations =  5.3

     negative rho (up, down):  1.820E-05 0.000E+00

     total cpu time spent up to now is       28.9 secs

     total energy              =    -520.57322330 Ry
     estimated scf accuracy    <       0.00659887 Ry

     iteration #  3     ecut=    55.00 Ry     beta= 0.30
     Davidson diagonalization with overlap
     ethr =  1.78E-07,  avg # of iterations =  2.4

     negative rho (up, down):  1.770E-05 0.000E+00

     total cpu time spent up to now is       29.7 secs

     total energy              =    -520.57343422 Ry
     estimated scf accuracy    <       0.00000962 Ry

     iteration #  4     ecut=    55.00 Ry     beta= 0.30
     Davidson diagonalization with overlap
     ethr =  1.39E-08,  avg # of iterations =  3.0

     negative rho (up, down):  1.550E-05 0.000E+00

     total cpu time spent up to now is       30.4 secs

     total energy              =    -520.57343498 Ry
     estimated scf accuracy    <       0.00001928 Ry

     iteration #  5     ecut=    55.00 Ry     beta= 0.30
     Davidson diagonalization with overlap
     ethr =  1.39E-08,  avg # of iterations =  1.6

     negative rho (up, down):  1.349E-05 0.000E+00

     total cpu time spent up to now is       30.8 secs

     End of self-consistent calculation

          k = 0.0000 0.0000 0.0000 ( 15163 PWs)   bands (ev):

   -45.6233  -5.2267  -4.2028  -4.1042  -3.8730  -3.7481  -3.3589  -3.2933
    -3.0746  -2.9533  -2.9260  -2.7010  -2.6143  -2.5671  -2.5507  -2.4504
    -2.4239  -2.2592  -2.2263  -1.9752  -1.9356  -1.8127  -1.7784  -1.7317
    -1.6689  -1.6569  -1.4733  -1.3204  -1.2968  -1.0392  -1.0322  -0.9285
    -0.7483  -0.6880   0.6881   2.0347   3.5336   4.3039   4.9337   5.6406
     5.7485   5.8182

          k = 0.0000 0.0884 0.0000 ( 15115 PWs)   bands (ev):

   -45.6232  -5.0790  -4.1579  -4.0537  -3.8282  -3.7380  -3.5257  -3.3677
    -3.1153  -2.8770  -2.7194  -2.7106  -2.6514  -2.5346  -2.4561  -2.3831
    -2.3471  -2.2908  -2.1430  -2.1100  -1.9437  -1.8150  -1.7160  -1.7109
    -1.7059  -1.5664  -1.4769  -1.4076  -1.1462  -1.1137  -1.0925  -0.8825
    -0.8019  -0.6645   0.7645   2.1401   3.3061   3.6269   4.6967   5.0621
     5.6882   5.8714

          k = 0.0000 0.1768 0.0000 ( 15114 PWs)   bands (ev):

   -45.6231  -4.6673  -4.0991  -3.9181  -3.8495  -3.7012  -3.6137  -3.4256
    -3.0151  -2.8302  -2.8059  -2.5935  -2.4767  -2.4645  -2.4558  -2.3881
    -2.3243  -2.2850  -2.1090  -2.0499  -1.8266  -1.7837  -1.7485  -1.6491
    -1.5615  -1.4752  -1.4569  -1.3307  -1.2877  -1.1266  -1.0114  -0.9111
    -0.8552  -0.5433   1.0054   1.5961   2.4428   2.9326   3.7601   4.3846
     5.4468   6.0577

          k = 0.0000 0.2652 0.0000 ( 15152 PWs)   bands (ev):

   -45.6232  -4.1549  -4.1062  -3.9860  -3.7900  -3.5745  -3.4630  -3.3697
    -3.0098  -2.8381  -2.7405  -2.5794  -2.5533  -2.5105  -2.4536  -2.3095
    -2.2831  -2.2053  -2.1548  -1.9909  -1.8902  -1.8477  -1.6162  -1.5649
    -1.3978  -1.3151  -1.2637  -1.2439  -1.1592  -1.0631  -1.0182  -0.9107
    -0.8772  -0.0736   0.0403   1.2157   1.5308   2.4695   3.1453   3.6558
     5.2948   6.2114

          k = 0.0000-0.3536 0.0000 ( 15118 PWs)   bands (ev):

   -45.6231  -4.1245  -4.0829  -3.8123  -3.7928  -3.4947  -3.3404  -3.2509
    -3.1489  -2.7321  -2.7078  -2.5918  -2.5819  -2.5767  -2.5498  -2.2193
    -2.1997  -2.1634  -2.1134  -2.0754  -2.0433  -1.8335  -1.7204  -1.2646
    -1.2501  -1.2060  -1.1966  -1.1234  -1.1229  -1.0333  -1.0115  -0.9120
    -0.8905  -0.2587  -0.1886   0.9891   1.2603   1.9601   3.1306   3.4188
     5.0885   6.2985

          k = 0.1250-0.0000 0.0000 ( 15077 PWs)   bands (ev):

   -45.6216  -4.9193  -3.9979  -3.8895  -3.7526  -3.5643  -3.2745  -3.1753
    -3.1299  -3.0926  -2.9423  -2.7952  -2.7456  -2.6659  -2.6148  -2.4251
    -2.4179  -2.2629  -2.2501  -1.9660  -1.9087  -1.8220  -1.6980  -1.6790
    -1.6052  -1.5490  -1.4699  -1.3188  -1.2405  -1.1703  -1.1653  -0.9199
    -0.7732  -0.5420   0.9228   2.3007   3.8435   4.9811   5.2082   5.9293
     6.0264   6.2600

          k = 0.1250 0.0884 0.0000 ( 15111 PWs)   bands (ev):

   -45.6217  -4.7800  -3.9420  -3.8387  -3.7209  -3.5214  -3.4585  -3.2287
    -3.0939  -3.0063  -2.8691  -2.7907  -2.6473  -2.6171  -2.4871  -2.4030
    -2.3922  -2.3436  -2.2360  -2.0394  -1.9503  -1.9146  -1.7716  -1.6617
    -1.6246  -1.5196  -1.4136  -1.3568  -1.1818  -1.1320  -1.1021  -0.9590
    -0.8504  -0.4587   1.0346   2.4238   3.9098   3.9561   5.0990   5.3399
     6.0153   6.1527

          k = 0.1250 0.1768 0.0000 ( 15135 PWs)   bands (ev):

   -45.6217  -4.3938  -3.8781  -3.6805  -3.6724  -3.6245  -3.4155  -3.2443
    -3.0469  -2.9002  -2.8325  -2.7048  -2.6138  -2.4374  -2.4296  -2.3725
    -2.3189  -2.2680  -2.2330  -2.1253  -1.9909  -1.9416  -1.8658  -1.8458
    -1.6020  -1.5277  -1.4008  -1.3096  -1.1223  -1.0867  -1.0715  -0.9778
    -0.9621  -0.1189   1.3688   2.1651   2.7899   3.3273   4.1615   4.7145
     5.7027   6.2944

          k = 0.1250 0.2652 0.0000 ( 15153 PWs)   bands (ev):

   -45.6217  -3.9167  -3.8929  -3.7777  -3.5294  -3.4074  -3.3275  -3.2188
    -3.0238  -2.8290  -2.7917  -2.6359  -2.5800  -2.4665  -2.4284  -2.3782
    -2.3246  -2.2944  -2.2606  -1.9976  -1.9896  -1.9309  -1.8534  -1.7081
    -1.5927  -1.5641  -1.3855  -1.3654  -1.2069  -1.1367  -1.0356  -1.0243
    -0.5802   0.5470   0.5837   1.7030   1.9688   3.0143   3.4008   4.0431
     5.5338   6.4531

          k = 0.1250-0.3536 0.0000 ( 15168 PWs)   bands (ev):

   -45.6218  -3.9155  -3.8701  -3.5352  -3.5199  -3.3187  -3.2505  -3.1827
    -3.0433  -2.7850  -2.7481  -2.6218  -2.6146  -2.5318  -2.4985  -2.3923
    -2.3548  -2.2929  -2.2403  -1.9843  -1.9684  -1.9282  -1.8864  -1.5151
    -1.5136  -1.4677  -1.4408  -1.3445  -1.3184  -1.1467  -1.1190  -0.5945
    -0.5860   0.3205   0.3382   1.6139   1.6879   2.6139   3.3504   3.8135
     5.3540   6.4710

          k = 0.1250-0.2652 0.0000 ( 15153 PWs)   bands (ev):

   -45.6217  -3.9167  -3.8929  -3.7777  -3.5294  -3.4074  -3.3275  -3.2188
    -3.0238  -2.8290  -2.7917  -2.6359  -2.5800  -2.4665  -2.4284  -2.3782
    -2.3246  -2.2944  -2.2606  -1.9976  -1.9896  -1.9309  -1.8534  -1.7081
    -1.5927  -1.5641  -1.3855  -1.3654  -1.2069  -1.1367  -1.0356  -1.0243
    -0.5802   0.5470   0.5837   1.7030   1.9688   3.0143   3.4008   4.0431
     5.5338   6.4531

          k = 0.1250-0.1768 0.0000 ( 15135 PWs)   bands (ev):

   -45.6217  -4.3938  -3.8781  -3.6805  -3.6724  -3.6245  -3.4155  -3.2443
    -3.0469  -2.9002  -2.8325  -2.7048  -2.6138  -2.4374  -2.4296  -2.3725
    -2.3189  -2.2680  -2.2330  -2.1253  -1.9909  -1.9416  -1.8658  -1.8458
    -1.6020  -1.5277  -1.4008  -1.3096  -1.1223  -1.0867  -1.0715  -0.9778
    -0.9621  -0.1189   1.3688   2.1651   2.7899   3.3273   4.1615   4.7145
     5.7027   6.2944

          k = 0.1250-0.0884 0.0000 ( 15111 PWs)   bands (ev):

   -45.6217  -4.7800  -3.9420  -3.8387  -3.7209  -3.5214  -3.4585  -3.2287
    -3.0939  -3.0063  -2.8691  -2.7907  -2.6473  -2.6171  -2.4871  -2.4030
    -2.3922  -2.3436  -2.2360  -2.0394  -1.9503  -1.9146  -1.7716  -1.6617
    -1.6246  -1.5196  -1.4136  -1.3568  -1.1818  -1.1320  -1.1021  -0.9590
    -0.8504  -0.4587   1.0346   2.4238   3.9098   3.9561   5.0990   5.3399
     6.0153   6.1527

          k = 0.2500-0.0000 0.0000 ( 15101 PWs)   bands (ev):

   -45.6181  -4.1637  -3.7798  -3.6510  -3.6292  -3.5659  -3.5150  -3.3403
    -3.1644  -3.1322  -3.0140  -2.9028  -2.7263  -2.5696  -2.4007  -2.3264
    -2.2295  -1.9685  -1.9229  -1.9031  -1.8088  -1.7520  -1.6441  -1.6269
    -1.5552  -1.3807  -1.3599  -1.2960  -1.2372  -1.1829  -1.1168  -0.8094
    -0.7775  -0.0210   1.5956   3.0585   4.6660   5.9797   6.6029   6.7041
     6.8222   7.4340

          k = 0.2500 0.0884 0.0000 ( 15103 PWs)   bands (ev):

   -45.6181  -4.0907  -3.7301  -3.6374  -3.5999  -3.4833  -3.4170  -3.3228
    -3.1583  -3.0418  -3.0026  -2.8549  -2.7110  -2.5342  -2.4321  -2.3061
    -2.2288  -2.1762  -1.9895  -1.9443  -1.8502  -1.7799  -1.6933  -1.6416
    -1.5620  -1.4162  -1.3712  -1.3325  -1.2535  -1.0794  -1.0023  -0.8728
    -0.8343   0.2108   1.7696   3.2177   4.8108   5.2670   6.0386   6.1789
     6.8580   6.9740

          k = 0.2500 0.1768 0.0000 ( 15121 PWs)   bands (ev):

   -45.6181  -3.9158  -3.6387  -3.5821  -3.4831  -3.2645  -3.2448  -3.2037
    -3.0558  -2.9794  -2.8918  -2.7976  -2.6854  -2.5557  -2.4550  -2.3206
    -2.2905  -2.2209  -2.1354  -2.0568  -1.8976  -1.8272  -1.7915  -1.7750
    -1.6760  -1.5220  -1.4586  -1.3743  -1.2158  -1.0418  -0.9893  -0.9584
    -0.5356   0.7977   2.2411   3.3311   3.7118   4.2648   5.2481   5.5333
     6.4665   6.9850

          k = 0.2500 0.2652 0.0000 ( 15099 PWs)   bands (ev):

   -45.6180  -3.7276  -3.5294  -3.4839  -3.4574  -3.0734  -3.0577  -2.9809
    -2.9383  -2.9097  -2.8602  -2.7835  -2.6594  -2.5662  -2.4220  -2.3843
    -2.3138  -2.2404  -2.1451  -2.1369  -1.9730  -1.9371  -1.8952  -1.8585
    -1.7528  -1.6079  -1.5561  -1.4828  -1.1530  -1.1225  -1.0917  -0.7723
     0.2342   1.5644   1.6434   2.6999   2.9769   3.9673   4.4326   5.0829
     6.2460   7.1348

          k = 0.2500-0.3536 0.0000 ( 15096 PWs)   bands (ev):

   -45.6180  -3.5961  -3.5490  -3.4503  -3.3901  -3.0879  -3.0580  -2.9369
    -2.9012  -2.8344  -2.7698  -2.7013  -2.6173  -2.4719  -2.4714  -2.3749
    -2.3704  -2.1884  -2.1863  -2.1184  -2.0427  -1.9854  -1.9651  -1.9109
    -1.8963  -1.6236  -1.5844  -1.3693  -1.3415  -1.1853  -1.1435   0.1886
     0.2305   1.2503   1.2944   2.6928   2.7050   3.9533   4.0342   4.9330
     6.1556   7.0269

          k = 0.2500-0.2652 0.0000 ( 15099 PWs)   bands (ev):

   -45.6180  -3.7276  -3.5294  -3.4839  -3.4574  -3.0734  -3.0577  -2.9809
    -2.9383  -2.9097  -2.8602  -2.7835  -2.6594  -2.5662  -2.4220  -2.3843
    -2.3138  -2.2404  -2.1451  -2.1369  -1.9730  -1.9371  -1.8952  -1.8585
    -1.7528  -1.6079  -1.5561  -1.4828  -1.1530  -1.1225  -1.0917  -0.7723
     0.2342   1.5644   1.6434   2.6999   2.9769   3.9673   4.4326   5.0829
     6.2460   7.1349

          k = 0.2500-0.1768 0.0000 ( 15121 PWs)   bands (ev):

   -45.6181  -3.9158  -3.6387  -3.5821  -3.4831  -3.2645  -3.2448  -3.2037
    -3.0558  -2.9794  -2.8918  -2.7976  -2.6854  -2.5557  -2.4550  -2.3206
    -2.2905  -2.2209  -2.1354  -2.0568  -1.8976  -1.8272  -1.7915  -1.7750
    -1.6760  -1.5220  -1.4586  -1.3743  -1.2158  -1.0418  -0.9893  -0.9584
    -0.5356   0.7977   2.2411   3.3311   3.7118   4.2648   5.2481   5.5333
     6.4664   6.9851

          k = 0.2500-0.0884 0.0000 ( 15103 PWs)   bands (ev):

   -45.6181  -4.0907  -3.7301  -3.6374  -3.5999  -3.4833  -3.4170  -3.3228
    -3.1583  -3.0418  -3.0026  -2.8549  -2.7110  -2.5342  -2.4321  -2.3061
    -2.2288  -2.1762  -1.9895  -1.9443  -1.8502  -1.7799  -1.6933  -1.6416
    -1.5620  -1.4162  -1.3712  -1.3325  -1.2535  -1.0794  -1.0023  -0.8728
    -0.8343   0.2108   1.7696   3.2177   4.8108   5.2670   6.0386   6.1789
     6.8579   6.9740

          k = 0.3750-0.0000 0.0000 ( 15069 PWs)   bands (ev):

   -45.6145  -3.9980  -3.9389  -3.8766  -3.8365  -3.6041  -3.4718  -3.4344
    -3.3489  -3.0784  -2.9152  -2.8525  -2.7157  -2.6742  -2.5130  -2.1755
    -2.0000  -1.7810  -1.7649  -1.7220  -1.5175  -1.5087  -1.3424  -1.2469
    -1.1851  -1.1574  -1.0803  -1.0506  -1.0292  -0.8440  -0.7589  -0.3810
    -0.0536   1.2083   2.6136   4.0565   4.4513   5.0264   5.6225   6.6413
     7.5080   8.0828

          k = 0.3750 0.0884 0.0000 ( 15052 PWs)   bands (ev):

   -45.6144  -3.9340  -3.8840  -3.8241  -3.7853  -3.6536  -3.4243  -3.3856
    -3.3569  -3.1364  -2.9537  -2.7676  -2.5828  -2.5602  -2.4936  -2.1619
    -2.0638  -1.9120  -1.7817  -1.7057  -1.6828  -1.4580  -1.4105  -1.3861
    -1.2414  -1.1784  -1.0836  -1.0342  -1.0176  -0.9017  -0.8473  -0.3882
     0.1530   1.4869   2.8361   4.2563   4.5409   5.1832   5.7678   6.7772
     7.1376   7.5063

          k = 0.3750 0.1768 0.0000 ( 15049 PWs)   bands (ev):

   -45.6144  -3.8432  -3.7795  -3.7249  -3.6556  -3.5493  -3.5122  -3.2291
    -3.1996  -3.0948  -2.9234  -2.6702  -2.5215  -2.4118  -2.4048  -2.3123
    -2.2220  -2.0282  -1.9348  -1.8287  -1.7426  -1.6281  -1.5331  -1.4492
    -1.2762  -1.2400  -1.1355  -1.0705  -1.0238  -0.9718  -0.9477  -0.3180
     0.7154   2.1335   3.4113   4.1266   4.8841   5.1484   5.9848   6.1811
     6.5023   6.9177

          k = 0.3750 0.2652 0.0000 ( 15057 PWs)   bands (ev):

   -45.6144  -3.9004  -3.7568  -3.5588  -3.4600  -3.3986  -3.2502  -3.0970
    -3.0091  -2.9389  -2.8488  -2.7265  -2.6024  -2.5105  -2.4637  -2.3962
    -2.3587  -2.2558  -2.1302  -1.9071  -1.8172  -1.6074  -1.5033  -1.4901
    -1.4283  -1.3081  -1.1553  -1.1205  -1.0556  -1.0282  -1.0021   0.2302
     1.5254   2.7684   2.9492   3.8140   4.3406   5.0519   5.9977   6.4022
     6.5687   7.0227

          k = 0.3750-0.3536 0.0000 ( 15056 PWs)   bands (ev):

   -45.6143  -3.8826  -3.8571  -3.3436  -3.3247  -3.2026  -3.2022  -3.0443
    -3.0257  -2.8024  -2.7616  -2.7584  -2.7299  -2.6829  -2.5839  -2.5097
    -2.4248  -2.1736  -2.1552  -1.9299  -1.8700  -1.6834  -1.5998  -1.4046
    -1.3689  -1.2388  -1.2314  -1.2065  -1.1436  -1.0538  -1.0138   1.3159
     1.3460   2.5695   2.5835   3.8831   4.1255   4.9720   5.7621   6.5367
     7.2689   7.4122

          k = 0.3750-0.2652 0.0000 ( 15057 PWs)   bands (ev):

   -45.6144  -3.9004  -3.7568  -3.5588  -3.4600  -3.3986  -3.2502  -3.0970
    -3.0091  -2.9389  -2.8488  -2.7265  -2.6024  -2.5105  -2.4637  -2.3962
    -2.3587  -2.2558  -2.1302  -1.9071  -1.8172  -1.6074  -1.5033  -1.4901
    -1.4283  -1.3081  -1.1553  -1.1205  -1.0556  -1.0282  -1.0021   0.2302
     1.5254   2.7684   2.9492   3.8140   4.3406   5.0519   5.9977   6.4022
     6.5687   7.0236

          k = 0.3750-0.1768 0.0000 ( 15049 PWs)   bands (ev):

   -45.6144  -3.8432  -3.7795  -3.7249  -3.6556  -3.5493  -3.5122  -3.2291
    -3.1996  -3.0948  -2.9234  -2.6702  -2.5215  -2.4118  -2.4048  -2.3123
    -2.2220  -2.0282  -1.9348  -1.8287  -1.7426  -1.6281  -1.5331  -1.4492
    -1.2762  -1.2400  -1.1355  -1.0705  -1.0238  -0.9718  -0.9477  -0.3180
     0.7154   2.1335   3.4113   4.1266   4.8841   5.1484   5.9848   6.1811
     6.5022   6.9177

          k = 0.3750-0.0884 0.0000 ( 15052 PWs)   bands (ev):

   -45.6144  -3.9340  -3.8840  -3.8241  -3.7853  -3.6536  -3.4243  -3.3856
    -3.3569  -3.1364  -2.9537  -2.7676  -2.5828  -2.5602  -2.4936  -2.1619
    -2.0638  -1.9120  -1.7817  -1.7057  -1.6828  -1.4580  -1.4105  -1.3861
    -1.2414  -1.1784  -1.0836  -1.0342  -1.0176  -0.9017  -0.8473  -0.3882
     0.1530   1.4869   2.8361   4.2563   4.5409   5.1832   5.7678   6.7772
     7.1376   7.5062

          k =-0.5000 0.0000 0.0000 ( 14992 PWs)   bands (ev):

   -45.6129  -4.1086  -4.0576  -3.9925  -3.9579  -3.5215  -3.5178  -3.4985
    -3.4798  -2.9783  -2.8894  -2.8074  -2.7831  -2.7034  -2.6077  -1.9278
    -1.9228  -1.8292  -1.7768  -1.5974  -1.4894  -1.2704  -1.2452  -1.1306
    -1.0857  -1.0845  -1.0531  -0.9203  -0.8495  -0.8042  -0.7850   1.6869
     1.6883   2.2633   2.2914   2.9728   3.1791   3.6540   5.8867   6.2246
     7.2054   8.8994

          k =-0.5000 0.0884 0.0000 ( 14998 PWs)   bands (ev):

   -45.6129  -4.0371  -3.9856  -3.9415  -3.9047  -3.6170  -3.5864  -3.4233
    -3.3813  -3.1419  -3.0101  -2.7287  -2.6457  -2.5544  -2.5148  -1.9477
    -1.8697  -1.8491  -1.8411  -1.6668  -1.6013  -1.3442  -1.2811  -1.1700
    -1.1384  -1.1143  -1.0725  -0.9518  -0.9212  -0.8432  -0.7783   1.7465
     1.7471   2.4092   2.4717   3.1671   3.4953   3.9652   5.9871   6.3673
     7.3099   8.8254

          k =-0.5000 0.1768 0.0000 ( 15026 PWs)   bands (ev):

   -45.6129  -3.8612  -3.8449  -3.8128  -3.7836  -3.6987  -3.6890  -3.2953
    -3.1892  -3.1595  -3.0359  -2.6688  -2.6110  -2.4069  -2.3811  -2.1590
    -2.0548  -1.8422  -1.8316  -1.8242  -1.7540  -1.4587  -1.4267  -1.3381
    -1.3080  -1.1805  -1.1025  -0.9301  -0.8517  -0.8382  -0.7929   1.9118
     1.9225   2.7869   2.9505   3.6999   4.2559   4.7587   6.2780   6.7717
     7.2163   7.5978

          k =-0.5000 0.2652 0.0000 ( 15032 PWs)   bands (ev):

   -45.6128  -3.9509  -3.9243  -3.6064  -3.5861  -3.4705  -3.4604  -3.1924
    -3.0055  -3.0045  -2.9590  -2.7029  -2.6777  -2.4635  -2.4125  -2.3807
    -2.3305  -2.1136  -2.0205  -1.9235  -1.8578  -1.5269  -1.4566  -1.3869
    -1.3187  -1.0373  -0.9795  -0.9554  -0.8572  -0.8419  -0.8073   2.1462
     2.1791   3.2995   3.5729   4.4222   5.1626   5.7249   5.9985   6.2432
     6.5338   6.6835

          k =-0.5000-0.3536 0.0000 ( 15032 PWs)   bands (ev):

   -45.6128  -3.9998  -3.9791  -3.4257  -3.4062  -3.4013  -3.3363  -3.0269
    -3.0036  -2.9608  -2.7749  -2.7643  -2.7488  -2.6503  -2.6382  -2.5318
    -2.4555  -2.0694  -2.0011  -1.9738  -1.9087  -1.6605  -1.5556  -1.2958
    -1.2428  -1.0223  -0.9213  -0.9171  -0.8797  -0.8496  -0.8005   2.2865
     2.3310   3.6277   3.9514   4.9072   5.4292   5.6875   5.8054   5.8722
     6.0862   6.5968

     the Fermi energy is     1.9919 ev

!    total energy              =    -520.57343656 Ry
     estimated scf accuracy    <       0.00000072 Ry
     smearing contrib. (-TS)   =       0.00084185 Ry
     internal energy E=F+TS    =    -520.57427840 Ry

     The total energy is F=E-TS. E is the sum of the following terms:
     one-electron contribution =   -5285.27935008 Ry
     hartree contribution      =    2689.32616559 Ry
     xc contribution           =    -137.47041033 Ry
     ewald contribution        =    2213.01472934 Ry
     DFT-D3 Dispersion         =      -0.16541292 Ry

     convergence has been achieved in   5 iterations

     negative rho (up, down):  1.349E-05 0.000E+00

     Forces acting on atoms (cartesian axes, Ry/au):

     atom    1 type  2   force =    -0.00000340   -0.00000121   -0.00100223
     atom    2 type  2   force =     0.00000520   -0.00000034    0.02563525
     atom    3 type  2   force =    -0.00000129   -0.00000252    0.00387048
     atom    4 type  2   force =     0.00000005    0.00000203   -0.00174216
     atom    5 type  2   force =    -0.00000176   -0.00000009    0.00673816
     atom    6 type  2   force =     0.00000175    0.00000251   -0.00643813
     atom    7 type  1   force =    -0.00000055   -0.00000038   -0.02706136
     The non-local contrib.  to forces
     atom    1 type  2   force =    -0.00000468    0.00000147   -0.00009099
     atom    2 type  2   force =     0.00000455   -0.00000116    0.02790146
     atom    3 type  2   force =    -0.00000169   -0.00000261   -0.02366382
     atom    4 type  2   force =     0.00000030    0.00000108    0.00552153
     atom    5 type  2   force =    -0.00000067    0.00000048   -0.13361511
     atom    6 type  2   force =     0.00000233    0.00000229   -0.00478548
     atom    7 type  1   force =     0.00000016    0.00000020    0.03834368
     The ionic contribution  to forces
     atom    1 type  2   force =     0.00000500   -0.00002405   66.96529873
     atom    2 type  2   force =    -0.00000013    0.00000770  107.45730908
     atom    3 type  2   force =     0.00000381   -0.00001478  -29.29618345
     atom    4 type  2   force =    -0.00000811    0.00002588   17.48460047
     atom    5 type  2   force =    -0.00000208    0.00000281 -118.14333452
     atom    6 type  2   force =     0.00000158    0.00000223  -78.19242101
     atom    7 type  1   force =    -0.00000008    0.00000022   33.72473071
     The local contribution  to forces
     atom    1 type  2   force =    -0.00000334    0.00002328  -66.96173487
     atom    2 type  2   force =     0.00000024   -0.00001162 -107.45161437
     atom    3 type  2   force =    -0.00000273    0.00001558   29.32334778
     atom    4 type  2   force =     0.00000850   -0.00002496  -17.48823746
     atom    5 type  2   force =     0.00000074   -0.00000084  118.27395801
     atom    6 type  2   force =     0.00000009   -0.00000519   78.18352493
     atom    7 type  1   force =     0.00000021   -0.00000010  -33.78980378
     The core correction contribution to forces
     atom    1 type  2   force =     0.00000010   -0.00000005   -0.00092422
     atom    2 type  2   force =    -0.00000005   -0.00000021   -0.00488564
     atom    3 type  2   force =     0.00000008    0.00000011   -0.00031103
     atom    4 type  2   force =     0.00000014   -0.00000000   -0.00005895
     atom    5 type  2   force =    -0.00000008    0.00000004    0.00602628
     atom    6 type  2   force =     0.00000006   -0.00000018    0.00263933
     atom    7 type  1   force =     0.00000000    0.00000000    0.00000000
     The Hubbard contrib.    to forces
     atom    1 type  2   force =     0.00000000    0.00000000    0.00000000
     atom    2 type  2   force =     0.00000000    0.00000000    0.00000000
     atom    3 type  2   force =     0.00000000    0.00000000    0.00000000
     atom    4 type  2   force =     0.00000000    0.00000000    0.00000000
     atom    5 type  2   force =     0.00000000    0.00000000    0.00000000
     atom    6 type  2   force =     0.00000000    0.00000000    0.00000000
     atom    7 type  1   force =     0.00000000    0.00000000    0.00000000
     The SCF correction term to forces
     atom    1 type  2   force =    -0.00000001   -0.00000168    0.00049555
     atom    2 type  2   force =     0.00000105    0.00000514    0.00208593
     atom    3 type  2   force =    -0.00000031   -0.00000063   -0.00219972
     atom    4 type  2   force =    -0.00000036    0.00000026   -0.00189906
     atom    5 type  2   force =     0.00000079   -0.00000239   -0.00052854
     atom    6 type  2   force =    -0.00000185    0.00000355   -0.00072181
     atom    7 type  1   force =    -0.00000038   -0.00000050    0.00034030

     DFT-D3 dispersion contribution to forces:
     atom    1 type  2   force =    -0.00000002    0.00000002   -0.00417359
     atom    2 type  2   force =    -0.00000000   -0.00000000   -0.00528836
     atom    3 type  2   force =    -0.00000001    0.00000001    0.00275357
     atom    4 type  2   force =     0.00000003   -0.00000002   -0.00179583
     atom    5 type  2   force =     0.00000001   -0.00000000    0.00410487
     atom    6 type  2   force =    -0.00000000   -0.00000000    0.00519877
     atom    7 type  1   force =     0.00000000   -0.00000000   -0.00079942

     Total force =     0.038670     Total SCF correction =     0.003736


     Computing stress (Cartesian axis) and pressure


     negative rho (up, down):  1.349E-05 0.000E+00
          total   stress  (Ry/bohr**3)                   (kbar)     P=      -17.51
  -0.00009610   0.00000000   0.00000000          -14.14        0.00        0.00
   0.00000000  -0.00014674   0.00000000            0.00      -21.59        0.00
   0.00000000   0.00000000  -0.00011426            0.00        0.00      -16.81

     Energy error            =      1.6E-03 Ry
     Gradient error          =      2.7E-02 Ry/Bohr

     number of scf cycles    =   2
     number of bfgs steps    =   1

     energy             old  =    -520.5718754959 Ry
     energy             new  =    -520.5734365588 Ry

     CASE: energy            _new < energy            _old


     WARNING: bfgs curvature condition failed, Theta= 0.827
     new trust radius        =       0.0301722825 bohr
     new conv_thr            =       0.0000001561 Ry


ATOMIC_POSITIONS (angstrom)
Ag            2.1766588024        3.0782697165       15.8473616243
Ag            0.7255507012        1.0260906911       17.2422500276
Ag            2.1766619277        3.0782673550       12.9071531663
Ag            0.7255552379        1.0260887230       14.3507519277
Ag            2.1766648846        3.0782658527       10.0079259263
Ag            0.7255543742        1.0260892565       11.4436028172
Li            2.1766586398        3.0782682915       19.1822803057



     Writing config-only to output data dir ./Ag_mp-124_110_bridge_0/Ag_mp-124_110_bridge_0.save/
     NEW-OLD atomic charge density approx. for the potential

     negative rho (up, down):  1.357E-05 0.000E+00

     total cpu time spent up to now is       33.8 secs

     per-process dynamical memory:   188.4 Mb

     Self-consistent Calculation

     iteration #  1     ecut=    55.00 Ry     beta= 0.30
     Davidson diagonalization with overlap
     ethr =  1.00E-06,  avg # of iterations =  5.3

     negative rho (up, down):  1.335E-05 0.000E+00

     total cpu time spent up to now is       34.9 secs

     total energy              =    -520.57502741 Ry
     estimated scf accuracy    <       0.00007979 Ry

     iteration #  2     ecut=    55.00 Ry     beta= 0.30
     Davidson diagonalization with overlap
     ethr =  1.16E-07,  avg # of iterations =  2.9

     negative rho (up, down):  1.737E-05 0.000E+00

     total cpu time spent up to now is       35.6 secs

     total energy              =    -520.57502601 Ry
     estimated scf accuracy    <       0.00048277 Ry

     iteration #  3     ecut=    55.00 Ry     beta= 0.30
     Davidson diagonalization with overlap
     ethr =  1.16E-07,  avg # of iterations =  1.6

     negative rho (up, down):  2.361E-05 0.000E+00

     total cpu time spent up to now is       36.0 secs

     total energy              =    -520.57505306 Ry
     estimated scf accuracy    <       0.00014663 Ry

     iteration #  4     ecut=    55.00 Ry     beta= 0.30
     Davidson diagonalization with overlap
     ethr =  1.16E-07,  avg # of iterations =  1.1

     negative rho (up, down):  1.731E-05 0.000E+00

     total cpu time spent up to now is       36.5 secs

     total energy              =    -520.57506084 Ry
     estimated scf accuracy    <       0.00005227 Ry

     iteration #  5     ecut=    55.00 Ry     beta= 0.30
     Davidson diagonalization with overlap
     ethr =  7.58E-08,  avg # of iterations =  1.1

     negative rho (up, down):  1.500E-05 0.000E+00

     total cpu time spent up to now is       37.0 secs

     total energy              =    -520.57506311 Ry
     estimated scf accuracy    <       0.00000088 Ry

     iteration #  6     ecut=    55.00 Ry     beta= 0.30
     Davidson diagonalization with overlap
     ethr =  1.28E-09,  avg # of iterations =  3.9

     negative rho (up, down):  1.371E-05 0.000E+00

     total cpu time spent up to now is       37.7 secs

     total energy              =    -520.57506344 Ry
     estimated scf accuracy    <       0.00000018 Ry

     iteration #  7     ecut=    55.00 Ry     beta= 0.30
     Davidson diagonalization with overlap
     ethr =  2.61E-10,  avg # of iterations =  2.4

     negative rho (up, down):  1.330E-05 0.000E+00

     total cpu time spent up to now is       38.1 secs

     End of self-consistent calculation

          k = 0.0000 0.0000 0.0000 ( 15163 PWs)   bands (ev):

   -45.5961  -5.2193  -4.1931  -4.0979  -3.8672  -3.7382  -3.3559  -3.2949
    -3.0740  -2.9431  -2.9266  -2.7005  -2.6102  -2.5601  -2.5491  -2.4446
    -2.4297  -2.2466  -2.2248  -1.9658  -1.9344  -1.8133  -1.7762  -1.7292
    -1.6627  -1.6525  -1.4705  -1.3197  -1.2965  -1.0382  -1.0310  -0.9308
    -0.7473  -0.6910   0.6923   2.0476   3.5463   4.3061   4.9367   5.6416
     5.7530   5.8097

          k = 0.0000 0.0884 0.0000 ( 15115 PWs)   bands (ev):

   -45.5960  -5.0716  -4.1479  -4.0475  -3.8224  -3.7288  -3.5222  -3.3689
    -3.1108  -2.8728  -2.7156  -2.7097  -2.6439  -2.5283  -2.4560  -2.3820
    -2.3344  -2.2957  -2.1404  -2.1090  -1.9370  -1.8127  -1.7132  -1.7062
    -1.7011  -1.5664  -1.4739  -1.4074  -1.1450  -1.1128  -1.0931  -0.8835
    -0.8003  -0.6681   0.7687   2.1529   3.3090   3.6395   4.6919   5.0648
     5.6881   5.8757

          k = 0.0000 0.1768 0.0000 ( 15114 PWs)   bands (ev):

   -45.5960  -4.6601  -4.0886  -3.9129  -3.8440  -3.6945  -3.6044  -3.4272
    -3.0073  -2.8256  -2.8015  -2.5932  -2.4712  -2.4623  -2.4466  -2.3826
    -2.3169  -2.2847  -2.1091  -2.0447  -1.8260  -1.7800  -1.7508  -1.6485
    -1.5606  -1.4725  -1.4533  -1.3326  -1.2880  -1.1255  -1.0125  -0.9090
    -0.8537  -0.5487   1.0090   1.6004   2.4538   2.9305   3.7690   4.3844
     5.4514   6.0707

          k = 0.0000 0.2652 0.0000 ( 15152 PWs)   bands (ev):

   -45.5961  -4.1500  -4.0951  -3.9800  -3.7847  -3.5624  -3.4595  -3.3673
    -3.0034  -2.8281  -2.7394  -2.5777  -2.5427  -2.5091  -2.4469  -2.3114
    -2.2734  -2.2047  -2.1486  -1.9914  -1.8885  -1.8442  -1.6180  -1.5628
    -1.4053  -1.3123  -1.2572  -1.2455  -1.1623  -1.0595  -1.0192  -0.9095
    -0.8747  -0.0742   0.0353   1.2218   1.5279   2.4607   3.1609   3.6665
     5.3205   6.2231

          k = 0.0000-0.3536 0.0000 ( 15118 PWs)   bands (ev):

   -45.5960  -4.1129  -4.0810  -3.8019  -3.7889  -3.4833  -3.3426  -3.2334
    -3.1516  -2.7214  -2.7070  -2.5859  -2.5742  -2.5717  -2.5476  -2.2089
    -2.1944  -2.1592  -2.1157  -2.0770  -2.0448  -1.8271  -1.7249  -1.2674
    -1.2487  -1.2122  -1.1951  -1.1241  -1.1195  -1.0279  -1.0108  -0.9123
    -0.8882  -0.2557  -0.1862   0.9781   1.2498   1.9615   3.1472   3.4305
     5.1163   6.3245

          k = 0.1250-0.0000 0.0000 ( 15077 PWs)   bands (ev):

   -45.5944  -4.9117  -3.9875  -3.8834  -3.7467  -3.5541  -3.2703  -3.1638
    -3.1301  -3.0921  -2.9414  -2.7863  -2.7409  -2.6663  -2.6145  -2.4222
    -2.4130  -2.2624  -2.2457  -1.9574  -1.9026  -1.8212  -1.6981  -1.6817
    -1.6042  -1.5476  -1.4659  -1.3177  -1.2413  -1.1692  -1.1650  -0.9180
    -0.7730  -0.5459   0.9280   2.3140   3.8561   4.9824   5.2115   5.9311
     6.0312   6.2517

          k = 0.1250 0.0884 0.0000 ( 15111 PWs)   bands (ev):

   -45.5945  -4.7725  -3.9311  -3.8326  -3.7152  -3.5113  -3.4549  -3.2242
    -3.0897  -3.0021  -2.8587  -2.7880  -2.6470  -2.6155  -2.4866  -2.4007
    -2.3877  -2.3382  -2.2350  -2.0369  -1.9460  -1.9114  -1.7714  -1.6602
    -1.6208  -1.5181  -1.4142  -1.3556  -1.1817  -1.1329  -1.1004  -0.9575
    -0.8499  -0.4634   1.0402   2.4370   3.9109   3.9691   5.0944   5.3430
     6.0166   6.1571

          k = 0.1250 0.1768 0.0000 ( 15135 PWs)   bands (ev):

   -45.5946  -4.3862  -3.8670  -3.6762  -3.6663  -3.6184  -3.4055  -3.2420
    -3.0383  -2.8950  -2.8274  -2.6979  -2.6118  -2.4369  -2.4234  -2.3694
    -2.3164  -2.2645  -2.2295  -2.1269  -1.9883  -1.9383  -1.8667  -1.8450
    -1.5983  -1.5276  -1.4027  -1.3082  -1.1225  -1.0886  -1.0687  -0.9763
    -0.9608  -0.1254   1.3744   2.1686   2.8022   3.3240   4.1712   4.7148
     5.7076   6.3071

          k = 0.1250 0.2652 0.0000 ( 15153 PWs)   bands (ev):

   -45.5946  -3.9114  -3.8813  -3.7716  -3.5239  -3.3996  -3.3178  -3.2139
    -3.0184  -2.8207  -2.7914  -2.6273  -2.5775  -2.4619  -2.4271  -2.3735
    -2.3161  -2.2921  -2.2579  -1.9991  -1.9863  -1.9277  -1.8541  -1.7104
    -1.5941  -1.5599  -1.3893  -1.3633  -1.2062  -1.1385  -1.0361  -1.0227
    -0.5789   0.5411   0.5836   1.7056   1.9707   3.0074   3.4167   4.0535
     5.5581   6.4668

          k = 0.1250-0.3536 0.0000 ( 15168 PWs)   bands (ev):

   -45.5946  -3.9034  -3.8681  -3.5253  -3.5134  -3.3052  -3.2500  -3.1710
    -3.0472  -2.7751  -2.7451  -2.6152  -2.6138  -2.5239  -2.4936  -2.3798
    -2.3481  -2.2922  -2.2450  -1.9871  -1.9683  -1.9265  -1.8825  -1.5146
    -1.5143  -1.4628  -1.4439  -1.3409  -1.3204  -1.1529  -1.1164  -0.5929
    -0.5850   0.3213   0.3367   1.6059   1.6802   2.6180   3.3686   3.8229
     5.3800   6.4962

          k = 0.1250-0.2652 0.0000 ( 15153 PWs)   bands (ev):

   -45.5946  -3.9114  -3.8813  -3.7716  -3.5239  -3.3996  -3.3178  -3.2139
    -3.0184  -2.8207  -2.7914  -2.6273  -2.5775  -2.4619  -2.4271  -2.3735
    -2.3161  -2.2921  -2.2579  -1.9991  -1.9863  -1.9277  -1.8541  -1.7104
    -1.5941  -1.5599  -1.3893  -1.3633  -1.2062  -1.1385  -1.0361  -1.0227
    -0.5789   0.5411   0.5836   1.7056   1.9707   3.0074   3.4167   4.0535
     5.5581   6.4668

          k = 0.1250-0.1768 0.0000 ( 15135 PWs)   bands (ev):

   -45.5946  -4.3862  -3.8670  -3.6762  -3.6663  -3.6184  -3.4055  -3.2420
    -3.0383  -2.8950  -2.8274  -2.6979  -2.6118  -2.4369  -2.4234  -2.3694
    -2.3164  -2.2645  -2.2295  -2.1269  -1.9883  -1.9383  -1.8667  -1.8450
    -1.5983  -1.5276  -1.4027  -1.3082  -1.1225  -1.0886  -1.0687  -0.9763
    -0.9608  -0.1254   1.3744   2.1686   2.8022   3.3240   4.1712   4.7148
     5.7076   6.3072

          k = 0.1250-0.0884 0.0000 ( 15111 PWs)   bands (ev):

   -45.5945  -4.7725  -3.9311  -3.8326  -3.7152  -3.5113  -3.4549  -3.2242
    -3.0897  -3.0021  -2.8587  -2.7880  -2.6470  -2.6155  -2.4866  -2.4007
    -2.3877  -2.3382  -2.2350  -2.0369  -1.9460  -1.9114  -1.7714  -1.6602
    -1.6208  -1.5181  -1.4142  -1.3556  -1.1817  -1.1329  -1.1004  -0.9575
    -0.8499  -0.4634   1.0402   2.4370   3.9109   3.9691   5.0944   5.3430
     6.0166   6.1571

          k = 0.2500-0.0000 0.0000 ( 15101 PWs)   bands (ev):

   -45.5909  -4.1557  -3.7668  -3.6474  -3.6236  -3.5539  -3.5142  -3.3335
    -3.1537  -3.1187  -3.0061  -2.9063  -2.7222  -2.5661  -2.4032  -2.3169
    -2.2294  -1.9716  -1.9191  -1.9023  -1.8053  -1.7501  -1.6424  -1.6318
    -1.5533  -1.3843  -1.3583  -1.2935  -1.2355  -1.1832  -1.1170  -0.8088
    -0.7757  -0.0280   1.6029   3.0718   4.6787   5.9838   6.6014   6.7077
     6.8268   7.4280

          k = 0.2500 0.0884 0.0000 ( 15103 PWs)   bands (ev):

   -45.5909  -4.0825  -3.7174  -3.6337  -3.5937  -3.4727  -3.4143  -3.3160
    -3.1482  -3.0284  -2.9958  -2.8569  -2.7079  -2.5303  -2.4341  -2.2968
    -2.2282  -2.1716  -1.9931  -1.9449  -1.8502  -1.7781  -1.6941  -1.6397
    -1.5617  -1.4147  -1.3726  -1.3327  -1.2520  -1.0755  -1.0045  -0.8723
    -0.8325   0.2034   1.7778   3.2311   4.8226   5.2672   6.0382   6.1793
     6.8617   6.9785

          k = 0.2500 0.1768 0.0000 ( 15121 PWs)   bands (ev):

   -45.5910  -3.9074  -3.6261  -3.5798  -3.4757  -3.2547  -3.2350  -3.2007
    -3.0478  -2.9719  -2.8804  -2.7968  -2.6834  -2.5540  -2.4479  -2.3217
    -2.2846  -2.2200  -2.1373  -2.0573  -1.8982  -1.8254  -1.7875  -1.7741
    -1.6762  -1.5233  -1.4548  -1.3754  -1.2147  -1.0461  -0.9871  -0.9571
    -0.5346   0.7900   2.2507   3.3343   3.7235   4.2601   5.2602   5.5355
     6.4716   6.9969

          k = 0.2500 0.2652 0.0000 ( 15099 PWs)   bands (ev):

   -45.5909  -3.7189  -3.5171  -3.4792  -3.4538  -3.0641  -3.0491  -2.9725
    -2.9300  -2.9052  -2.8522  -2.7790  -2.6569  -2.5658  -2.4181  -2.3776
    -2.3104  -2.2406  -2.1434  -2.1388  -1.9728  -1.9340  -1.8941  -1.8586
    -1.7508  -1.6062  -1.5565  -1.4823  -1.1533  -1.1273  -1.0887  -0.7717
     0.2331   1.5560   1.6451   2.7010   2.9841   3.9726   4.4390   5.0943
     6.2654   7.1517

          k = 0.2500-0.3536 0.0000 ( 15096 PWs)   bands (ev):

   -45.5909  -3.5820  -3.5485  -3.4370  -3.3896  -3.0755  -3.0553  -2.9287
    -2.8961  -2.8254  -2.7669  -2.6855  -2.6182  -2.4697  -2.4694  -2.3717
    -2.3639  -2.1911  -2.1853  -2.1163  -2.0408  -1.9813  -1.9608  -1.9122
    -1.8983  -1.6243  -1.5843  -1.3647  -1.3426  -1.1919  -1.1410   0.1896
     0.2309   1.2453   1.2937   2.6882   2.7019   3.9723   4.0426   4.9400
     6.1773   7.0486

          k = 0.2500-0.2652 0.0000 ( 15099 PWs)   bands (ev):

   -45.5909  -3.7189  -3.5171  -3.4792  -3.4538  -3.0641  -3.0491  -2.9725
    -2.9300  -2.9052  -2.8522  -2.7790  -2.6569  -2.5658  -2.4181  -2.3776
    -2.3104  -2.2406  -2.1434  -2.1388  -1.9728  -1.9340  -1.8941  -1.8586
    -1.7508  -1.6062  -1.5565  -1.4823  -1.1533  -1.1273  -1.0887  -0.7717
     0.2331   1.5560   1.6451   2.7010   2.9841   3.9726   4.4390   5.0943
     6.2654   7.1517

          k = 0.2500-0.1768 0.0000 ( 15121 PWs)   bands (ev):

   -45.5910  -3.9074  -3.6261  -3.5798  -3.4757  -3.2547  -3.2350  -3.2007
    -3.0478  -2.9719  -2.8804  -2.7968  -2.6834  -2.5540  -2.4479  -2.3217
    -2.2846  -2.2200  -2.1373  -2.0573  -1.8982  -1.8254  -1.7875  -1.7741
    -1.6762  -1.5233  -1.4548  -1.3754  -1.2147  -1.0461  -0.9871  -0.9571
    -0.5346   0.7900   2.2507   3.3343   3.7235   4.2601   5.2602   5.5355
     6.4716   6.9970

          k = 0.2500-0.0884 0.0000 ( 15103 PWs)   bands (ev):

   -45.5909  -4.0825  -3.7174  -3.6337  -3.5937  -3.4727  -3.4143  -3.3160
    -3.1482  -3.0284  -2.9958  -2.8569  -2.7079  -2.5303  -2.4341  -2.2968
    -2.2282  -2.1716  -1.9931  -1.9449  -1.8502  -1.7781  -1.6941  -1.6397
    -1.5617  -1.4147  -1.3726  -1.3327  -1.2520  -1.0755  -1.0045  -0.8723
    -0.8325   0.2034   1.7778   3.2311   4.8226   5.2672   6.0382   6.1793
     6.8617   6.9785

          k = 0.3750-0.0000 0.0000 ( 15069 PWs)   bands (ev):

   -45.5873  -3.9852  -3.9370  -3.8647  -3.8347  -3.5922  -3.4662  -3.4236
    -3.3403  -3.0707  -2.9039  -2.8454  -2.7174  -2.6794  -2.5093  -2.1708
    -2.0035  -1.7824  -1.7601  -1.7233  -1.5140  -1.5111  -1.3432  -1.2479
    -1.1821  -1.1569  -1.0804  -1.0498  -1.0310  -0.8419  -0.7581  -0.3784
    -0.0529   1.2000   2.6224   4.0644   4.4547   5.0287   5.6308   6.6449
     7.5101   8.0979

          k = 0.3750 0.0884 0.0000 ( 15052 PWs)   bands (ev):

   -45.5873  -3.9208  -3.8819  -3.8140  -3.7832  -3.6422  -3.4126  -3.3794
    -3.3505  -3.1274  -2.9505  -2.7614  -2.5797  -2.5609  -2.4910  -2.1567
    -2.0648  -1.9116  -1.7813  -1.7098  -1.6788  -1.4562  -1.4071  -1.3870
    -1.2437  -1.1790  -1.0840  -1.0306  -1.0201  -0.8999  -0.8463  -0.3855
     0.1538   1.4788   2.8462   4.2637   4.5445   5.1839   5.7771   6.7806
     7.1365   7.5089

          k = 0.3750 0.1768 0.0000 ( 15049 PWs)   bands (ev):

   -45.5872  -3.8362  -3.7668  -3.7237  -3.6436  -3.5425  -3.5083  -3.2167
    -3.1930  -3.0905  -2.9225  -2.6648  -2.5157  -2.4122  -2.4005  -2.3068
    -2.2188  -2.0319  -1.9351  -1.8260  -1.7407  -1.6247  -1.5312  -1.4513
    -1.2770  -1.2390  -1.1335  -1.0723  -1.0248  -0.9688  -0.9468  -0.3152
     0.7150   2.1266   3.4243   4.1274   4.8904   5.1460   5.9870   6.1927
     6.5004   6.9272

          k = 0.3750 0.2652 0.0000 ( 15057 PWs)   bands (ev):

   -45.5872  -3.8925  -3.7513  -3.5463  -3.4577  -3.3889  -3.2469  -3.0898
    -3.0011  -2.9362  -2.8459  -2.7230  -2.5958  -2.5023  -2.4637  -2.3932
    -2.3570  -2.2559  -2.1281  -1.9028  -1.8146  -1.6073  -1.5016  -1.4879
    -1.4293  -1.3070  -1.1553  -1.1188  -1.0575  -1.0266  -1.0005   0.2324
     1.5230   2.7695   2.9439   3.8163   4.3487   5.0563   6.0074   6.4079
     6.5747   7.0259

          k = 0.3750-0.3536 0.0000 ( 15056 PWs)   bands (ev):

   -45.5872  -3.8710  -3.8548  -3.3305  -3.3200  -3.2003  -3.1938  -3.0355
    -3.0248  -2.7992  -2.7576  -2.7494  -2.7309  -2.6776  -2.5879  -2.4961
    -2.4257  -2.1720  -2.1516  -1.9251  -1.8666  -1.6807  -1.6015  -1.4020
    -1.3695  -1.2367  -1.2307  -1.2062  -1.1403  -1.0581  -1.0110   1.3190
     1.3461   2.5629   2.5815   3.8875   4.1214   4.9883   5.7756   6.5446
     7.2712   7.4120

          k = 0.3750-0.2652 0.0000 ( 15057 PWs)   bands (ev):

   -45.5872  -3.8925  -3.7513  -3.5463  -3.4577  -3.3889  -3.2469  -3.0898
    -3.0011  -2.9362  -2.8459  -2.7230  -2.5958  -2.5023  -2.4637  -2.3932
    -2.3570  -2.2559  -2.1281  -1.9028  -1.8146  -1.6073  -1.5016  -1.4879
    -1.4293  -1.3070  -1.1553  -1.1188  -1.0575  -1.0266  -1.0005   0.2324
     1.5230   2.7695   2.9439   3.8163   4.3487   5.0563   6.0073   6.4079
     6.5747   7.0262

          k = 0.3750-0.1768 0.0000 ( 15049 PWs)   bands (ev):

   -45.5872  -3.8362  -3.7668  -3.7237  -3.6436  -3.5425  -3.5083  -3.2167
    -3.1930  -3.0905  -2.9225  -2.6648  -2.5157  -2.4122  -2.4005  -2.3068
    -2.2188  -2.0319  -1.9351  -1.8260  -1.7407  -1.6247  -1.5312  -1.4513
    -1.2770  -1.2390  -1.1335  -1.0723  -1.0248  -0.9688  -0.9468  -0.3152
     0.7150   2.1266   3.4243   4.1274   4.8904   5.1460   5.9870   6.1927
     6.5004   6.9272

          k = 0.3750-0.0884 0.0000 ( 15052 PWs)   bands (ev):

   -45.5873  -3.9208  -3.8819  -3.8140  -3.7832  -3.6422  -3.4126  -3.3794
    -3.3505  -3.1274  -2.9505  -2.7614  -2.5797  -2.5609  -2.4910  -2.1567
    -2.0648  -1.9116  -1.7813  -1.7098  -1.6788  -1.4562  -1.4071  -1.3870
    -1.2437  -1.1790  -1.0840  -1.0306  -1.0201  -0.8999  -0.8463  -0.3855
     0.1538   1.4788   2.8462   4.2637   4.5445   5.1839   5.7771   6.7806
     7.1365   7.5089

          k =-0.5000 0.0000 0.0000 ( 14992 PWs)   bands (ev):

   -45.5857  -4.0949  -4.0565  -3.9807  -3.9557  -3.5089  -3.5039  -3.4931
    -3.4747  -2.9690  -2.8700  -2.8146  -2.7856  -2.6960  -2.6135  -1.9260
    -1.9218  -1.8213  -1.7818  -1.6024  -1.4879  -1.2713  -1.2399  -1.1287
    -1.0928  -1.0856  -1.0494  -0.9220  -0.8481  -0.7998  -0.7872   1.6907
     1.6915   2.2638   2.2908   2.9765   3.1682   3.6581   5.9021   6.2317
     7.2356   8.9237

          k =-0.5000 0.0884 0.0000 ( 14998 PWs)   bands (ev):

   -45.5857  -4.0234  -3.9835  -3.9311  -3.9032  -3.6023  -3.5818  -3.4116
    -3.3764  -3.1321  -3.0089  -2.7178  -2.6505  -2.5478  -2.5180  -1.9397
    -1.8759  -1.8475  -1.8376  -1.6694  -1.6000  -1.3444  -1.2752  -1.1720
    -1.1422  -1.1185  -1.0698  -0.9502  -0.9185  -0.8427  -0.7775   1.7492
     1.7512   2.4089   2.4706   3.1721   3.4844   3.9702   6.0028   6.3744
     7.3399   8.8413

          k =-0.5000 0.1768 0.0000 ( 15026 PWs)   bands (ev):

   -45.5857  -3.8516  -3.8373  -3.8035  -3.7800  -3.6888  -3.6852  -3.2829
    -3.1875  -3.1504  -3.0364  -2.6568  -2.6150  -2.4009  -2.3858  -2.1476
    -2.0540  -1.8423  -1.8266  -1.8259  -1.7552  -1.4600  -1.4216  -1.3418
    -1.3050  -1.1824  -1.1004  -0.9306  -0.8497  -0.8379  -0.7914   1.9131
     1.9274   2.7850   2.9481   3.7080   4.2451   4.7656   6.2940   6.7785
     7.2212   7.5968

          k =-0.5000 0.2652 0.0000 ( 15032 PWs)   bands (ev):

   -45.5857  -3.9396  -3.9222  -3.5943  -3.5756  -3.4681  -3.4576  -3.1840
    -3.0080  -2.9959  -2.9568  -2.7051  -2.6696  -2.4510  -2.4155  -2.3728
    -2.3313  -2.1108  -2.0185  -1.9195  -1.8542  -1.5272  -1.4553  -1.3881
    -1.3170  -1.0373  -0.9772  -0.9555  -0.8548  -0.8428  -0.8054   2.1467
     2.1842   3.2963   3.5688   4.4345   5.1525   5.7342   5.9941   6.2431
     6.5356   6.6899

          k =-0.5000-0.3536 0.0000 ( 15032 PWs)   bands (ev):

   -45.5857  -3.9887  -3.9764  -3.4203  -3.3950  -3.3885  -3.3369  -3.0249
    -2.9978  -2.9569  -2.7781  -2.7618  -2.7543  -2.6426  -2.6332  -2.5161
    -2.4545  -2.0670  -1.9941  -1.9709  -1.9044  -1.6588  -1.5573  -1.2958
    -1.2414  -1.0246  -0.9187  -0.9146  -0.8773  -0.8514  -0.7985   2.2865
     2.3362   3.6241   3.9455   4.9243   5.4230   5.6877   5.8075   5.8615
     6.0855   6.6118

     the Fermi energy is     1.9951 ev

!    total energy              =    -520.57506352 Ry
     estimated scf accuracy    <       0.00000005 Ry
     smearing contrib. (-TS)   =       0.00087314 Ry
     internal energy E=F+TS    =    -520.57593666 Ry

     The total energy is F=E-TS. E is the sum of the following terms:
     one-electron contribution =   -5282.32352233 Ry
     hartree contribution      =    2687.84115942 Ry
     xc contribution           =    -137.46936286 Ry
     ewald contribution        =    2211.54109420 Ry
     DFT-D3 Dispersion         =      -0.16530508 Ry

     convergence has been achieved in   7 iterations

     negative rho (up, down):  1.330E-05 0.000E+00

     Forces acting on atoms (cartesian axes, Ry/au):

[...]

          k = 0.1250-0.1768 0.0000 ( 15135 PWs)   bands (ev):

   -44.9086  -4.5606  -4.0155  -3.8471  -3.8241  -3.7937  -3.6057  -3.4550
    -3.2199  -3.0808  -3.0100  -2.8607  -2.7904  -2.6629  -2.5943  -2.5431
    -2.4496  -2.4365  -2.4045  -2.3802  -2.1681  -2.1257  -2.0425  -2.0345
    -1.7688  -1.7336  -1.6128  -1.4824  -1.2833  -1.2542  -1.2066  -1.0900
    -1.0786  -0.2671   1.4176   2.0064   2.9238   3.2815   4.5586   4.7584
     5.9623   6.4679

          k = 0.1250-0.0884 0.0000 ( 15111 PWs)   bands (ev):

   -44.9085  -4.9488  -4.0868  -3.9980  -3.8977  -3.6671  -3.6409  -3.4492
    -3.2805  -3.1768  -3.0344  -2.9788  -2.8655  -2.8017  -2.6920  -2.5851
    -2.5415  -2.4983  -2.3960  -2.2430  -2.1530  -2.0883  -1.9268  -1.8601
    -1.7641  -1.6954  -1.6084  -1.5706  -1.3427  -1.3045  -1.2375  -1.0886
    -0.9777  -0.5610   1.1299   2.8201   3.6295   4.4989   4.8438   5.5380
     6.1589   6.2585

          k = 0.2500-0.0000 0.0000 ( 15101 PWs)   bands (ev):

   -44.9047  -4.3283  -3.9102  -3.8165  -3.7785  -3.7229  -3.6714  -3.5158
    -3.4312  -3.3138  -3.1985  -3.1057  -2.9136  -2.7874  -2.5864  -2.5044
    -2.4234  -2.2232  -2.1226  -2.0803  -1.9434  -1.8849  -1.8682  -1.7979
    -1.6874  -1.6395  -1.4904  -1.4417  -1.3789  -1.3079  -1.2986  -0.9815
    -0.8809  -0.1538   1.7397   3.4658   5.2151   6.1846   6.2338   6.8450
     6.9543   7.2114

          k = 0.2500 0.0884 0.0000 ( 15103 PWs)   bands (ev):

   -44.9047  -4.2560  -3.8685  -3.8027  -3.7557  -3.6303  -3.5720  -3.4866
    -3.3681  -3.2719  -3.1935  -3.0486  -2.8967  -2.7552  -2.6108  -2.4879
    -2.4204  -2.3409  -2.2794  -2.1147  -2.0432  -1.9192  -1.8855  -1.7755
    -1.7011  -1.6687  -1.5437  -1.5026  -1.3798  -1.2151  -1.1680  -1.0124
    -0.9477   0.0621   1.9216   3.6272   4.9573   5.3312   5.9031   6.3307
     6.9939   7.1044

          k = 0.2500 0.1768 0.0000 ( 15121 PWs)   bands (ev):

   -44.9047  -4.0825  -3.7933  -3.7423  -3.6443  -3.4115  -3.3923  -3.3557
    -3.2214  -3.1581  -3.1361  -2.9816  -2.8574  -2.6977  -2.6617  -2.5287
    -2.5209  -2.4294  -2.3866  -2.2589  -2.0453  -1.9983  -1.9592  -1.9173
    -1.8235  -1.7775  -1.6145  -1.5613  -1.3446  -1.2362  -1.1038  -1.0758
    -0.6983   0.6351   2.3830   3.1616   3.9084   4.2165   5.4983   5.7225
     6.7004   7.1942

          k = 0.2500 0.2652 0.0000 ( 15099 PWs)   bands (ev):

   -44.9046  -3.8953  -3.6844  -3.6405  -3.6242  -3.2328  -3.2155  -3.1576
    -3.0969  -3.0754  -3.0102  -2.9546  -2.8404  -2.7193  -2.6523  -2.5798
    -2.5261  -2.4526  -2.4129  -2.3013  -2.1291  -2.1027  -2.0682  -2.0049
    -1.9322  -1.7973  -1.7648  -1.6421  -1.3214  -1.2871  -1.1892  -0.9638
     0.0309   1.3200   1.4798   2.4906   3.1381   4.0468   4.7299   5.3427
     6.8653   7.5300

          k = 0.2500-0.3536 0.0000 ( 15096 PWs)   bands (ev):

   -44.9046  -3.7731  -3.6977  -3.6004  -3.5598  -3.2440  -3.2019  -3.1286
    -3.0858  -3.0283  -2.9273  -2.8113  -2.8081  -2.6589  -2.6196  -2.5602
    -2.5480  -2.4514  -2.4120  -2.3306  -2.2451  -2.1738  -2.0718  -2.0592
    -2.0475  -1.8716  -1.7561  -1.5246  -1.5005  -1.3628  -1.2467  -0.0652
     0.0245   1.0113   1.0784   2.5678   2.6009   4.1777   4.4088   5.1512
     6.9082   7.6754

          k = 0.2500-0.2652 0.0000 ( 15099 PWs)   bands (ev):

   -44.9046  -3.8953  -3.6844  -3.6405  -3.6242  -3.2328  -3.2155  -3.1576
    -3.0969  -3.0754  -3.0102  -2.9546  -2.8404  -2.7193  -2.6523  -2.5798
    -2.5261  -2.4526  -2.4129  -2.3013  -2.1291  -2.1027  -2.0682  -2.0049
    -1.9322  -1.7973  -1.7648  -1.6421  -1.3214  -1.2871  -1.1892  -0.9638
     0.0309   1.3200   1.4798   2.4906   3.1381   4.0468   4.7299   5.3427
     6.8653   7.5300

          k = 0.2500-0.1768 0.0000 ( 15121 PWs)   bands (ev):

   -44.9047  -4.0825  -3.7933  -3.7423  -3.6443  -3.4115  -3.3923  -3.3557
    -3.2214  -3.1581  -3.1361  -2.9816  -2.8574  -2.6977  -2.6617  -2.5287
    -2.5209  -2.4294  -2.3866  -2.2589  -2.0453  -1.9983  -1.9592  -1.9173
    -1.8235  -1.7775  -1.6145  -1.5613  -1.3446  -1.2362  -1.1038  -1.0758
    -0.6983   0.6351   2.3830   3.1616   3.9084   4.2165   5.4983   5.7225
     6.7004   7.1942

          k = 0.2500-0.0884 0.0000 ( 15103 PWs)   bands (ev):

   -44.9047  -4.2560  -3.8685  -3.8027  -3.7557  -3.6303  -3.5720  -3.4866
    -3.3681  -3.2719  -3.1935  -3.0486  -2.8967  -2.7552  -2.6108  -2.4879
    -2.4204  -2.3409  -2.2794  -2.1147  -2.0432  -1.9192  -1.8855  -1.7755
    -1.7011  -1.6687  -1.5437  -1.5026  -1.3798  -1.2151  -1.1680  -1.0124
    -0.9477   0.0621   1.9216   3.6272   4.9573   5.3312   5.9031   6.3307
     6.9939   7.1044

          k = 0.3750-0.0000 0.0000 ( 15069 PWs)   bands (ev):

   -44.9009  -4.1530  -4.0936  -4.0352  -3.9889  -3.7519  -3.6401  -3.5912
    -3.5165  -3.3350  -3.1027  -3.0959  -2.9209  -2.8770  -2.7123  -2.3697
    -2.2241  -2.0219  -1.9642  -1.8786  -1.7144  -1.6637  -1.5161  -1.4481
    -1.3263  -1.2991  -1.2224  -1.2056  -1.1738  -0.9687  -0.8907  -0.5354
    -0.2315   1.0430   2.8123   4.1543   4.3698   4.8857   6.1723   6.6015
     7.7031   8.2001

          k = 0.3750 0.0884 0.0000 ( 15052 PWs)   bands (ev):

   -44.9008  -4.0920  -4.0356  -3.9829  -3.9350  -3.8003  -3.5842  -3.5546
    -3.5253  -3.3961  -3.1375  -3.0185  -2.7783  -2.7432  -2.6964  -2.3603
    -2.2678  -2.0976  -1.9729  -1.9646  -1.8352  -1.6413  -1.5895  -1.5302
    -1.4313  -1.3452  -1.2466  -1.1928  -1.1340  -1.0243  -0.9720  -0.5453
    -0.0321   1.3266   3.0531   4.2211   4.5739   5.0170   6.3038   6.7305
     6.9199   7.4574

          k = 0.3750 0.1768 0.0000 ( 15049 PWs)   bands (ev):

   -44.9008  -4.0035  -3.9342  -3.8823  -3.7837  -3.7014  -3.6839  -3.4463
    -3.3685  -3.3337  -3.0934  -2.8737  -2.7195  -2.6098  -2.5870  -2.4574
    -2.4011  -2.2809  -2.0832  -2.0218  -1.9395  -1.8197  -1.7593  -1.6421
    -1.4515  -1.3998  -1.2663  -1.2536  -1.1614  -1.0920  -1.0674  -0.5022
     0.5059   1.9933   3.6742   3.8288   4.8655   5.1642   5.8322   6.3231
     6.6888   7.0732

          k = 0.3750 0.2652 0.0000 ( 15057 PWs)   bands (ev):

   -44.9007  -4.0634  -3.9110  -3.6947  -3.6322  -3.5537  -3.4164  -3.3582
    -3.1574  -3.1379  -3.0105  -2.8543  -2.7784  -2.7007  -2.6835  -2.6071
    -2.5026  -2.4516  -2.3219  -2.0892  -2.0202  -1.8199  -1.7103  -1.6820
    -1.5997  -1.4395  -1.3704  -1.2586  -1.2012  -1.1620  -1.1117  -0.0041
     1.2846   2.4779   2.8282   3.6638   4.5178   5.1666   6.2274   6.2986
     6.5887   7.1732

          k = 0.3750-0.3536 0.0000 ( 15056 PWs)   bands (ev):

   -44.9007  -4.0585  -3.9995  -3.5219  -3.4470  -3.4392  -3.3262  -3.2414
    -3.1462  -3.0406  -2.9872  -2.9317  -2.8809  -2.8156  -2.7695  -2.6485
    -2.6312  -2.3879  -2.3598  -2.1163  -2.0779  -1.8545  -1.7595  -1.6268
    -1.5758  -1.4200  -1.4051  -1.3392  -1.2735  -1.2127  -1.1202   1.0578
     1.0800   2.2953   2.3291   3.9047   4.0315   5.3529   6.0284   6.7514
     7.0572   7.2564

          k = 0.3750-0.2652 0.0000 ( 15057 PWs)   bands (ev):

   -44.9007  -4.0634  -3.9110  -3.6947  -3.6322  -3.5537  -3.4164  -3.3582
    -3.1574  -3.1379  -3.0105  -2.8543  -2.7784  -2.7007  -2.6835  -2.6071
    -2.5026  -2.4516  -2.3219  -2.0892  -2.0202  -1.8199  -1.7103  -1.6820
    -1.5997  -1.4395  -1.3704  -1.2586  -1.2012  -1.1620  -1.1117  -0.0041
     1.2846   2.4779   2.8282   3.6638   4.5178   5.1666   6.2274   6.2986
     6.5887   7.1732

          k = 0.3750-0.1768 0.0000 ( 15049 PWs)   bands (ev):

   -44.9008  -4.0035  -3.9342  -3.8823  -3.7837  -3.7014  -3.6839  -3.4463
    -3.3685  -3.3337  -3.0934  -2.8737  -2.7195  -2.6098  -2.5870  -2.4574
    -2.4011  -2.2809  -2.0832  -2.0218  -1.9395  -1.8197  -1.7593  -1.6421
    -1.4515  -1.3998  -1.2663  -1.2536  -1.1614  -1.0920  -1.0674  -0.5022
     0.5059   1.9933   3.6742   3.8288   4.8655   5.1642   5.8322   6.3231
     6.6888   7.0732

          k = 0.3750-0.0884 0.0000 ( 15052 PWs)   bands (ev):

   -44.9008  -4.0920  -4.0356  -3.9829  -3.9350  -3.8003  -3.5842  -3.5546
    -3.5253  -3.3961  -3.1375  -3.0185  -2.7783  -2.7432  -2.6964  -2.3603
    -2.2678  -2.0976  -1.9729  -1.9646  -1.8352  -1.6413  -1.5895  -1.5302
    -1.4313  -1.3452  -1.2466  -1.1928  -1.1340  -1.0243  -0.9720  -0.5453
    -0.0321   1.3266   3.0531   4.2211   4.5739   5.0170   6.3038   6.7305
     6.9199   7.4574

          k =-0.5000 0.0000 0.0000 ( 14992 PWs)   bands (ev):

   -44.8992  -4.2707  -4.2099  -4.1529  -4.1075  -3.7008  -3.6946  -3.6473
    -3.6337  -3.2289  -3.0597  -3.0209  -2.9771  -2.9395  -2.8257  -2.1277
    -2.1274  -2.0484  -1.9299  -1.8922  -1.6329  -1.4779  -1.3771  -1.2723
    -1.2655  -1.2630  -1.1469  -1.1004  -0.9765  -0.9574  -0.8991   1.4865
     1.5390   2.0692   2.1029   2.9571   3.1075   3.7071   6.1688   6.4390
     8.2031   9.1969

          k =-0.5000 0.0884 0.0000 ( 14998 PWs)   bands (ev):

   -44.8991  -4.1962  -4.1369  -4.1013  -4.0577  -3.7615  -3.7283  -3.5991
    -3.5951  -3.3852  -3.1877  -2.9195  -2.8988  -2.7421  -2.7072  -2.1341
    -2.1014  -2.0407  -2.0219  -1.9262  -1.7632  -1.5313  -1.3856  -1.3691
    -1.3640  -1.2740  -1.1818  -1.0911  -1.0556  -0.9833  -0.9055   1.5319
     1.5907   2.2122   2.2701   3.2729   3.3133   4.0322   6.2937   6.5492
     8.3124   8.8152

          k =-0.5000 0.1768 0.0000 ( 15026 PWs)   bands (ev):

   -44.8992  -4.0207  -4.0001  -3.9560  -3.9211  -3.8596  -3.8503  -3.5515
    -3.4172  -3.3199  -3.2086  -2.8290  -2.8248  -2.6412  -2.5602  -2.2966
    -2.2321  -2.0675  -2.0511  -1.9948  -1.9587  -1.6780  -1.6027  -1.5356
    -1.4301  -1.3602  -1.2307  -1.1269  -1.0032  -0.9610  -0.9057   1.6566
     1.7412   2.5814   2.7158   3.8751   4.0361   4.8703   6.5752   6.8585
     7.0291   7.4781

          k =-0.5000 0.2652 0.0000 ( 15032 PWs)   bands (ev):

   -44.8991  -4.1191  -4.0709  -3.7467  -3.7280  -3.6461  -3.6214  -3.4765
    -3.2050  -3.1504  -3.1342  -2.8948  -2.7970  -2.6674  -2.5748  -2.5591
    -2.5358  -2.3077  -2.2178  -2.1084  -2.0628  -1.7219  -1.6158  -1.5969
    -1.4905  -1.2682  -1.1304  -1.1058  -1.0026  -0.9721  -0.9179   1.8309
     1.9560   3.0749   3.2923   4.6485   4.9554   5.7006   5.9140   6.0597
     6.4460   6.5253

          k =-0.5000-0.3536 0.0000 ( 15032 PWs)   bands (ev):

   -44.8991  -4.1751  -4.1205  -3.6357  -3.5622  -3.5223  -3.4953  -3.2302
    -3.2242  -3.1393  -2.9616  -2.9417  -2.9215  -2.8108  -2.7852  -2.6826
    -2.6453  -2.3092  -2.1859  -2.1752  -2.1107  -1.8390  -1.7112  -1.4948
    -1.4057  -1.3041  -1.0979  -1.0347  -0.9931  -0.9870  -0.9180   1.9339
     2.0806   3.3838   3.6344   5.1392   5.2373   5.5223   5.6931   5.7113
     5.8933   6.6663

     the Fermi energy is     1.9094 ev

!    total energy              =    -520.60005093 Ry
     estimated scf accuracy    <          1.1E-09 Ry
     smearing contrib. (-TS)   =       0.00080431 Ry
     internal energy E=F+TS    =    -520.60085525 Ry

     The total energy is F=E-TS. E is the sum of the following terms:
     one-electron contribution =   -5392.30430579 Ry
     hartree contribution      =    2742.51748622 Ry
     xc contribution           =    -137.56020285 Ry
     ewald contribution        =    2266.91442379 Ry
     DFT-D3 Dispersion         =      -0.16825662 Ry

     convergence has been achieved in   8 iterations

     negative rho (up, down):  1.804E-05 0.000E+00

     Forces acting on atoms (cartesian axes, Ry/au):

     atom    1 type  2   force =    -0.00000060    0.00000109    0.00052046
     atom    2 type  2   force =     0.00000031   -0.00000063   -0.00048317
     atom    3 type  2   force =    -0.00000056    0.00000079   -0.00018655
     atom    4 type  2   force =     0.00000089   -0.00000116    0.00016236
     atom    5 type  2   force =    -0.00000027    0.00000053   -0.00046216
     atom    6 type  2   force =     0.00000029   -0.00000058    0.00082919
     atom    7 type  1   force =    -0.00000006   -0.00000004   -0.00038013
     The non-local contrib.  to forces
     atom    1 type  2   force =    -0.00000054    0.00000105    0.01799613
     atom    2 type  2   force =     0.00000031   -0.00000077   -0.01313435
     atom    3 type  2   force =    -0.00000041    0.00000049   -0.02721840
     atom    4 type  2   force =     0.00000059   -0.00000101    0.00858395
     atom    5 type  2   force =    -0.00000022    0.00000041   -0.13124278
     atom    6 type  2   force =     0.00000020   -0.00000041    0.00797112
     atom    7 type  1   force =    -0.00000006   -0.00000007    0.05776306
     The ionic contribution  to forces
     atom    1 type  2   force =    -0.00002725    0.00008379   65.76358421
     atom    2 type  2   force =     0.00001354   -0.00004805  109.06284600
     atom    3 type  2   force =    -0.00002196    0.00005556  -29.26911623
     atom    4 type  2   force =     0.00003204   -0.00007871   17.46852344
     atom    5 type  2   force =    -0.00000911    0.00003186 -118.66326205
     atom    6 type  2   force =     0.00001454   -0.00004609  -79.56877346
     atom    7 type  1   force =    -0.00000180    0.00000165   35.20619809
     The local contribution  to forces
     atom    1 type  2   force =     0.00002703   -0.00008352  -65.77653549
     atom    2 type  2   force =    -0.00001343    0.00004806 -109.04509914
     atom    3 type  2   force =     0.00002167   -0.00005525   29.29226099
     atom    4 type  2   force =    -0.00003153    0.00007839  -17.47478035
     atom    5 type  2   force =     0.00000904   -0.00003179  118.78228810
     atom    6 type  2   force =    -0.00001439    0.00004572   79.55512235
     atom    7 type  1   force =     0.00000179   -0.00000163  -35.26199240
     The core correction contribution to forces
     atom    1 type  2   force =     0.00000008   -0.00000015    0.00027266
     atom    2 type  2   force =    -0.00000004    0.00000008   -0.00125190
     atom    3 type  2   force =     0.00000007   -0.00000010    0.00062425
     atom    4 type  2   force =    -0.00000012    0.00000015   -0.00047357
     atom    5 type  2   force =     0.00000004   -0.00000007    0.00708844
     atom    6 type  2   force =    -0.00000004    0.00000007    0.00168946
     atom    7 type  1   force =     0.00000000    0.00000000    0.00000000
     The Hubbard contrib.    to forces
     atom    1 type  2   force =     0.00000000    0.00000000    0.00000000
     atom    2 type  2   force =     0.00000000    0.00000000    0.00000000
     atom    3 type  2   force =     0.00000000    0.00000000    0.00000000
     atom    4 type  2   force =     0.00000000    0.00000000    0.00000000
     atom    5 type  2   force =     0.00000000    0.00000000    0.00000000
     atom    6 type  2   force =     0.00000000    0.00000000    0.00000000
     atom    7 type  1   force =     0.00000000    0.00000000    0.00000000
     The SCF correction term to forces
     atom    1 type  2   force =     0.00000001   -0.00000002    0.00007271
     atom    2 type  2   force =    -0.00000003    0.00000001    0.00002330
     atom    3 type  2   force =     0.00000001    0.00000012   -0.00003759
     atom    4 type  2   force =    -0.00000000   -0.00000005   -0.00000720
     atom    5 type  2   force =    -0.00000006    0.00000014    0.00002100
     atom    6 type  2   force =    -0.00000000    0.00000011    0.00003657
     atom    7 type  1   force =     0.00000000   -0.00000000    0.00000592

     DFT-D3 dispersion contribution to forces:
     atom    1 type  2   force =     0.00000006   -0.00000007   -0.00486306
     atom    2 type  2   force =    -0.00000003    0.00000004   -0.00386039
     atom    3 type  2   force =     0.00000005   -0.00000003    0.00330711
     atom    4 type  2   force =    -0.00000009    0.00000006   -0.00167723
     atom    5 type  2   force =     0.00000002   -0.00000003    0.00465181
     atom    6 type  2   force =    -0.00000002    0.00000002    0.00478985
     atom    7 type  1   force =     0.00000001    0.00000000   -0.00234811

     Total force =     0.001269     Total SCF correction =     0.000095


     Computing stress (Cartesian axis) and pressure


     negative rho (up, down):  1.804E-05 0.000E+00
          total   stress  (Ry/bohr**3)                   (kbar)     P=      -11.90
  -0.00007755   0.00000000   0.00000000          -11.41        0.00        0.00
   0.00000000  -0.00011550  -0.00000000            0.00      -16.99       -0.00
   0.00000000  -0.00000000  -0.00004960            0.00       -0.00       -7.30

     Energy error            =      3.0E-05 Ry
     Gradient error          =      8.3E-04 Ry/Bohr

     bfgs converged in  24 scf cycles and  23 bfgs steps
     (criteria: energy <  1.0E-04 Ry, force <  1.0E-03 Ry/Bohr)

     End of BFGS Geometry Optimization

     Final energy             =    -520.6000509341 Ry

     File ./Ag_mp-124_110_bridge_0/Ag_mp-124_110_bridge_0.bfgs deleted, as requested
Begin final coordinates

ATOMIC_POSITIONS (angstrom)
Ag            2.1766619994        3.0782662803       15.8876036728
Ag            0.7255461854        1.0260948247       17.3803971074
Ag            2.1766654744        3.0782646857       13.0239433705
Ag            0.7255456197        1.0260921054       14.4335569632
Ag            2.1766716677        3.0782612482       10.1617664928
Ag            0.7255573309        1.0260869750       11.5170055292
Li            2.1766562903        3.0782737670       18.5770526592
End final coordinates



     Writing all to output data dir ./Ag_mp-124_110_bridge_0/Ag_mp-124_110_bridge_0.save/

     init_run     :      2.56s CPU      5.54s WALL (       1 calls)
     electrons    :    109.34s CPU    127.18s WALL (      24 calls)
     update_pot   :      8.76s CPU      9.16s WALL (      23 calls)
     forces       :      8.92s CPU     10.68s WALL (      24 calls)
     force_dftd3  :      1.75s CPU      2.44s WALL (      24 calls)
     stress       :     26.80s CPU     28.26s WALL (      24 calls)
     stres_dftd3  :      0.78s CPU      1.22s WALL (      24 calls)

     Called by init_run:
     wfcinit      :      0.22s CPU      0.48s WALL (       1 calls)
     potinit      :      0.79s CPU      2.38s WALL (       1 calls)
     hinit0       :      1.36s CPU      2.27s WALL (       1 calls)

     Called by electrons:
     c_bands      :     87.58s CPU     93.64s WALL (     192 calls)
     sum_band     :     12.61s CPU     13.48s WALL (     192 calls)
     v_of_rho     :      3.87s CPU     11.41s WALL (     206 calls)
     newd         :      6.35s CPU      9.85s WALL (     206 calls)
     mix_rho      :      0.41s CPU      0.61s WALL (     192 calls)
     energy_dftd3 :      0.16s CPU      0.28s WALL (      24 calls)

     Called by c_bands:
     init_us_2    :      0.71s CPU      0.76s WALL (    3897 calls)
     init_us_2:cp :      0.70s CPU      0.75s WALL (    3897 calls)
     cegterg      :     79.63s CPU     82.72s WALL (    1728 calls)

     Called by *egterg:
     cdiaghg      :     17.18s CPU     17.35s WALL (    7712 calls)
     h_psi        :     49.30s CPU     51.79s WALL (    8018 calls)
     s_psi        :      2.40s CPU      2.43s WALL (    8018 calls)
     g_psi        :      0.22s CPU      0.23s WALL (    6281 calls)

     Called by h_psi:
     h_psi:calbec :      4.04s CPU      4.52s WALL (    8018 calls)
     vloc_psi     :     42.70s CPU     44.63s WALL (    8018 calls)
     add_vuspsi   :      2.37s CPU      2.44s WALL (    8018 calls)

     General routines
     calbec       :      6.94s CPU      7.62s WALL (   10826 calls)
     fft          :      6.63s CPU     18.32s WALL (    3263 calls)
     ffts         :      0.55s CPU      0.61s WALL (     398 calls)
     fftw         :     43.88s CPU     45.79s WALL (  467112 calls)
     interpolate  :      1.12s CPU      1.75s WALL (     206 calls)

     Parallel routines

     PWSCF        :   2m39.76s CPU   3m 6.94s WALL


   This run was terminated on:   5:26:47  24Jul2025            

=------------------------------------------------------------------------------=
   JOB DONE.
=------------------------------------------------------------------------------=
