
     Program PWSCF v.7.2 starts on 24Jul2025 at  5:27: 6 

     This program is part of the open-source Quantum ESPRESSO suite
     for quantum simulation of materials; please cite
         "P. Giannozzi et al., J. Phys.:Condens. Matter 21 395502 (2009);
         "P. Giannozzi et al., J. Phys.:Condens. Matter 29 465901 (2017);
         "P. Giannozzi et al., J. Chem. Phys. 152 154105 (2020);
          URL http://www.quantum-espresso.org", 
     in publications or presentations arising from this work. More details at
     http://www.quantum-espresso.org/quote

     Parallel version (MPI & OpenMP), running on     128 processor cores
     Number of MPI processes:               128
     Threads/MPI process:                     1

     MPI processes distributed on     2 nodes
     237282 MiB available memory on the printing compute node when the environment starts

     Reading input from Ag_mp-124_111_bridge_1.in

     Current dimensions of program PWSCF are:
     Max number of different atomic species (ntypx) = 10
     Max number of k-points (npk) =  40000
     Max angular momentum in pseudopotentials (lmaxx) =  4
     Message from routine iosys:
     restart disabled: needed files not found

     K-points division:     npool     =       4
     R & G space division:  proc/nbgrp/npool/nimage =      32
     Subspace diagonalization in iterative solution of the eigenvalue problem:
     a serial algorithm will be used


     Parallelization info
     --------------------
     sticks:   dense  smooth     PW     G-vecs:    dense   smooth      PW
     Min          32      14      4                 9247     2668     476
     Max          33      15      5                 9307     2719     521
     Sum        1039     451    151               296663    86301   15967

     Using Slab Decomposition



     bravais-lattice index     =            0
     lattice parameter (alat)  =       5.4844  a.u.
     unit-cell volume          =    1569.1543 (a.u.)^3
     number of atoms/cell      =            7
     number of atomic types    =            2
     number of electrons       =        69.00
     number of Kohn-Sham states=           42
     kinetic-energy cutoff     =      55.0000  Ry
     charge density cutoff     =     500.0000  Ry
     scf convergence threshold =      1.0E-06
     mixing beta               =       0.3000
     number of iterations used =            8  plain     mixing
     energy convergence thresh.=      1.0E-04
     force convergence thresh. =      1.0E-03
     Exchange-correlation= PBE
                           (   1   4   3   4   0   0   0)
     nstep                     =          500


     celldm(1)=   5.484398  celldm(2)=   0.000000  celldm(3)=   0.000000
     celldm(4)=   0.000000  celldm(5)=   0.000000  celldm(6)=   0.000000

     crystal axes: (cart. coord. in units of alat)
               a(1) = (   0.999045   0.000000   0.043685 )  
               a(2) = (   0.498568   0.865749   0.043685 )  
               a(3) = (   0.000000   0.000000  10.997690 )  

     reciprocal axes: (cart. coord. in units 2 pi/alat)
               b(1) = (  1.000956 -0.576430  0.000000 )  
               b(2) = (  0.000000  1.155069  0.000000 )  
               b(3) = ( -0.003976 -0.002298  0.090928 )  


     PseudoPot. # 1 for Li read from file:
     /home/ecastro/trabajo_final/pseudos/Li.pbe-s-rrkjus_psl.1.0.0.UPF
     MD5 check sum: 9f98d2529904d60b716d33989e9bc179
     Pseudo is Ultrasoft, Zval =  3.0
     Generated using &quot;atomic&quot; code by A. Dal Corso  v.6.3MaX
     Using radial grid of 1017 points,  4 beta functions with: 
                l(1) =   0
                l(2) =   0
                l(3) =   1
                l(4) =   1
     Q(r) pseudized with 0 coefficients 


     PseudoPot. # 2 for Ag read from file:
     /home/ecastro/trabajo_final/pseudos/Ag.pbe-n-rrkjus_psl.1.0.0.UPF
     MD5 check sum: 81cdf87bacf708300839c66ee23ce017
     Pseudo is Ultrasoft + core correction, Zval = 11.0
     Generated using &quot;atomic&quot; code by A. Dal Corso  v.6.2.2
     Using radial grid of 1237 points,  6 beta functions with: 
                l(1) =   0
                l(2) =   0
                l(3) =   1
                l(4) =   1
                l(5) =   2
                l(6) =   2
     Q(r) pseudized with 0 coefficients 


     atomic species   valence    mass     pseudopotential
        Li             3.00     6.94100     Li( 1.00)
        Ag            11.00   107.86820     Ag( 1.00)

     No symmetry found



   Cartesian axes

     site n.     atom                  positions (alat units)
         1           Ag  tau(   1) = (   0.6717609   0.1958243   3.4893255  )
         2           Ag  tau(   2) = (   0.6354667   0.7523774   4.3193443  )
         3           Ag  tau(   3) = (   1.0996503   0.4431812   5.1493632  )
         4           Ag  tau(   4) = (   0.5647885   0.1339850   5.9356968  )
         5           Ag  tau(   5) = (   0.5289793   0.6908197   6.7545940  )
         6           Ag  tau(   6) = (   0.9926572   0.3813309   7.5962214  )
         7           Li  tau(   7) = (   0.7123232   0.7968080   8.2853494  )

     --------------------------------------------
     DFT-D3 Dispersion Correction (no 3-body):
     --------------------------------------------
       Reference C6 values for interpolation: 

         atom   Coordination number   C6
         Li         0.000          2326.89
         Li         0.987           170.64
         Ag         0.000           853.49
         Ag         0.968           537.23

       Values used:

         atom   Coordination number  R0_AB[au]  C6      C8
         Ag         6.506            3.147    537.23  47741.54
         Ag         8.709            3.147    537.23  47741.54
         Ag         8.719            3.147    537.23  47741.54
         Ag         8.815            3.147    537.23  47741.54
         Ag         8.721            3.147    537.23  47741.54
         Ag         9.238            3.147    537.23  47741.54
         Li         7.912            3.303    170.64  12899.87

         Molecular C6 ( Ry / a.u.^6 ) =     22982.53


     number of k points=    34  Methfessel-Paxton smearing, width (Ry)=  0.0300
                       cart. coord. in units 2pi/alat
        k(    1) = (   0.0000000   0.0000000   0.0000000), wk =   0.0312500
        k(    2) = (   0.0000000   0.1443836   0.0000000), wk =   0.0625000
        k(    3) = (   0.0000000   0.2887672   0.0000000), wk =   0.0625000
        k(    4) = (   0.0000000   0.4331508   0.0000000), wk =   0.0625000
        k(    5) = (   0.0000000  -0.5775343   0.0000000), wk =   0.0312500
        k(    6) = (   0.1251194  -0.0720538   0.0000000), wk =   0.0625000
        k(    7) = (   0.1251194   0.0723298   0.0000000), wk =   0.0625000
        k(    8) = (   0.1251194   0.2167134   0.0000000), wk =   0.0625000
        k(    9) = (   0.1251194   0.3610970   0.0000000), wk =   0.0625000
        k(   10) = (   0.1251194  -0.6495881   0.0000000), wk =   0.0625000
        k(   11) = (   0.1251194  -0.5052045   0.0000000), wk =   0.0625000
        k(   12) = (   0.1251194  -0.3608209   0.0000000), wk =   0.0625000
        k(   13) = (   0.1251194  -0.2164373   0.0000000), wk =   0.0625000
        k(   14) = (   0.2502389  -0.1441075   0.0000000), wk =   0.0625000
        k(   15) = (   0.2502389   0.0002761   0.0000000), wk =   0.0625000
        k(   16) = (   0.2502389   0.1446597   0.0000000), wk =   0.0625000
        k(   17) = (   0.2502389   0.2890432   0.0000000), wk =   0.0625000
        k(   18) = (   0.2502389  -0.7216419   0.0000000), wk =   0.0625000
        k(   19) = (   0.2502389  -0.5772583   0.0000000), wk =   0.0625000
        k(   20) = (   0.2502389  -0.4328747   0.0000000), wk =   0.0625000
        k(   21) = (   0.2502389  -0.2884911   0.0000000), wk =   0.0625000
        k(   22) = (   0.3753583  -0.2161613   0.0000000), wk =   0.0625000
        k(   23) = (   0.3753583  -0.0717777   0.0000000), wk =   0.0625000
        k(   24) = (   0.3753583   0.0726059   0.0000000), wk =   0.0625000
        k(   25) = (   0.3753583   0.2169895   0.0000000), wk =   0.0625000
        k(   26) = (   0.3753583  -0.7936956   0.0000000), wk =   0.0625000
        k(   27) = (   0.3753583  -0.6493120   0.0000000), wk =   0.0625000
        k(   28) = (   0.3753583  -0.5049284   0.0000000), wk =   0.0625000
        k(   29) = (   0.3753583  -0.3605449   0.0000000), wk =   0.0625000
        k(   30) = (  -0.5004778   0.2882150   0.0000000), wk =   0.0312500
        k(   31) = (  -0.5004778   0.4325986   0.0000000), wk =   0.0625000
        k(   32) = (  -0.5004778   0.5769822   0.0000000), wk =   0.0625000
        k(   33) = (  -0.5004778   0.7213658   0.0000000), wk =   0.0625000
        k(   34) = (  -0.5004778  -0.2893193   0.0000000), wk =   0.0312500

     Dense  grid:   296663 G-vectors     FFT dimensions: (  40,  40, 432)

     Smooth grid:    86301 G-vectors     FFT dimensions: (  25,  25, 288)

     Estimated max dynamical RAM per process >      19.19 MB

     Estimated total dynamical RAM >       2.19 GB
     Cannot read rho : file not found

     Initial potential from superposition of free atoms

     starting charge      68.9930, renormalised to      69.0000

     negative rho (up, down):  2.933E-05 0.000E+00
     Message from routine qexsd_readschema :
     xml data file ./Ag_mp-124_111_bridge_1/Ag_mp-124_111_bridge_1.save/data-file-sch
     Cannot read wfcs: file not found
     Starting wfcs are   59 randomized atomic wfcs

     total cpu time spent up to now is        7.0 secs

     per-process dynamical memory:   175.2 Mb

     Self-consistent Calculation

     iteration #  1     ecut=    55.00 Ry     beta= 0.30
     Davidson diagonalization with overlap
     c_bands:  2 eigenvalues not converged
     c_bands:  1 eigenvalues not converged
     c_bands:  1 eigenvalues not converged
     c_bands:  1 eigenvalues not converged
     c_bands:  1 eigenvalues not converged
     c_bands:  2 eigenvalues not converged
     c_bands:  2 eigenvalues not converged
     ethr =  1.00E-05,  avg # of iterations = 19.6

     negative rho (up, down):  2.339E-05 0.000E+00

     total cpu time spent up to now is        8.9 secs

     total energy              =    -520.39534354 Ry
     estimated scf accuracy    <       0.58731458 Ry

     iteration #  2     ecut=    55.00 Ry     beta= 0.30
     Davidson diagonalization with overlap
     ethr =  8.51E-04,  avg # of iterations =  8.7

     negative rho (up, down):  5.259E-05 0.000E+00

     total cpu time spent up to now is        9.6 secs

     total energy              =    -516.96846070 Ry
     estimated scf accuracy    <     222.24841159 Ry

     iteration #  3     ecut=    55.00 Ry     beta= 0.30
     Davidson diagonalization with overlap
     ethr =  8.51E-04,  avg # of iterations =  7.9

     negative rho (up, down):  4.935E-05 0.000E+00

     total cpu time spent up to now is       10.3 secs

     total energy              =    -520.61503444 Ry
     estimated scf accuracy    <       0.20862508 Ry

     iteration #  4     ecut=    55.00 Ry     beta= 0.30
     Davidson diagonalization with overlap
     ethr =  3.02E-04,  avg # of iterations =  3.1

     negative rho (up, down):  4.821E-05 0.000E+00

     total cpu time spent up to now is       10.7 secs

     total energy              =    -520.61702736 Ry
     estimated scf accuracy    <       0.27538720 Ry

     iteration #  5     ecut=    55.00 Ry     beta= 0.30
     Davidson diagonalization with overlap
     ethr =  3.02E-04,  avg # of iterations =  2.6

     negative rho (up, down):  5.670E-05 0.000E+00

     total cpu time spent up to now is       11.1 secs

     total energy              =    -520.61352698 Ry
     estimated scf accuracy    <       0.68711445 Ry

     iteration #  6     ecut=    55.00 Ry     beta= 0.30
     Davidson diagonalization with overlap
     ethr =  3.02E-04,  avg # of iterations =  1.1

     negative rho (up, down):  3.993E-05 0.000E+00

     total cpu time spent up to now is       11.4 secs

     total energy              =    -520.63129897 Ry
     estimated scf accuracy    <       0.02708505 Ry

     iteration #  7     ecut=    55.00 Ry     beta= 0.30
     Davidson diagonalization with overlap
     ethr =  3.93E-05,  avg # of iterations =  4.7

     negative rho (up, down):  2.381E-05 0.000E+00

     total cpu time spent up to now is       11.9 secs

     total energy              =    -520.63089088 Ry
     estimated scf accuracy    <       0.02582406 Ry

     iteration #  8     ecut=    55.00 Ry     beta= 0.30
     Davidson diagonalization with overlap
     ethr =  3.74E-05,  avg # of iterations =  1.6

     negative rho (up, down):  5.270E-06 0.000E+00

     total cpu time spent up to now is       12.3 secs

     total energy              =    -520.63090098 Ry
     estimated scf accuracy    <       0.00195874 Ry

     iteration #  9     ecut=    55.00 Ry     beta= 0.30
     Davidson diagonalization with overlap
     ethr =  2.84E-06,  avg # of iterations =  9.5

     negative rho (up, down):  5.368E-06 0.000E+00

     total cpu time spent up to now is       12.9 secs

     total energy              =    -520.63113693 Ry
     estimated scf accuracy    <       0.00012079 Ry

     iteration # 10     ecut=    55.00 Ry     beta= 0.30
     Davidson diagonalization with overlap
     ethr =  1.75E-07,  avg # of iterations =  1.9

     negative rho (up, down):  6.500E-06 0.000E+00

     total cpu time spent up to now is       13.2 secs

     total energy              =    -520.63114460 Ry
     estimated scf accuracy    <       0.00004430 Ry

     iteration # 11     ecut=    55.00 Ry     beta= 0.30
     Davidson diagonalization with overlap
     ethr =  6.42E-08,  avg # of iterations =  1.6

     negative rho (up, down):  7.129E-06 0.000E+00

     total cpu time spent up to now is       13.6 secs

     total energy              =    -520.63114564 Ry
     estimated scf accuracy    <       0.00002012 Ry

     iteration # 12     ecut=    55.00 Ry     beta= 0.30
     Davidson diagonalization with overlap
     ethr =  2.92E-08,  avg # of iterations =  1.6

     negative rho (up, down):  7.911E-06 0.000E+00

     total cpu time spent up to now is       13.9 secs

     End of self-consistent calculation

          k = 0.0000 0.0000 0.0000 ( 10919 PWs)   bands (ev):

   -42.7532  -3.6149  -3.1526  -2.5890  -2.3601  -2.2933  -2.1882  -1.0323
    -0.8231  -0.8193  -0.8148  -0.7922  -0.7492  -0.7472  -0.7411  -0.7310
    -0.6784  -0.6698  -0.6322  -0.6296  -0.5321  -0.5320  -0.1544   0.0703
     0.1346   0.2089   0.2121   0.2315   0.2421   0.4628   0.4753   0.7196
     0.7273   0.9331   0.9351   1.0421   2.2669   3.5196   3.9849   7.1836
     7.7646   8.1327

          k = 0.0000 0.1444 0.0000 ( 10876 PWs)   bands (ev):

   -42.7499  -3.2037  -2.7590  -2.2151  -2.1032  -2.0122  -1.8823  -1.1629
    -1.0310  -0.9514  -0.8835  -0.8569  -0.8192  -0.7030  -0.6508  -0.6311
    -0.5841  -0.5350  -0.5283  -0.4917  -0.4778  -0.4515  -0.3296  -0.2326
    -0.0109   0.0476   0.1024   0.1504   0.2455   0.2906   0.4702   0.4874
     0.7383   0.9492   0.9561   1.8894   2.9744   4.0743   4.8055   7.5266
     8.1094   8.4315

          k = 0.0000 0.2888 0.0000 ( 10871 PWs)   bands (ev):

   -42.7421  -2.3241  -2.0594  -1.8987  -1.8116  -1.6866  -1.5800  -1.4592
    -1.3606  -1.1875  -1.0694  -0.9338  -0.7935  -0.6455  -0.5952  -0.5531
    -0.4830  -0.3904  -0.3578  -0.2248  -0.1505  -0.0832  -0.0615   0.0392
     0.0866   0.0911   0.2385   0.2536   0.2966   0.4251   0.5406   0.7600
     0.8153   0.9880   1.8226   3.0482   4.1763   5.3817   6.6243   8.4997
     9.1043   9.4089

          k = 0.0000 0.4332 0.0000 ( 10791 PWs)   bands (ev):

   -42.7340  -2.2144  -2.1781  -2.0658  -2.0253  -1.9545  -1.8597  -1.8104
    -1.6804  -1.4327  -1.1081  -0.9122  -0.7683  -0.6895  -0.5825  -0.4649
    -0.2754  -0.1561  -0.0646   0.2216   0.2795   0.5139   0.5407   0.6739
     0.7244   0.7267   0.8025   0.8205   0.8654   0.9135   1.0474   1.5472
     1.8986   2.3526   3.3116   4.4830   5.6841   7.0521   8.2810   8.8027
     9.2708   9.9305

          k = 0.0000-0.5775 0.0000 ( 10736 PWs)   bands (ev):

   -42.7306  -2.3462  -2.2921  -2.2025  -2.1589  -2.0430  -1.9890  -1.9501
    -1.8238  -1.5616  -1.1795  -0.9869  -0.8595  -0.7592  -0.5205  -0.4166
    -0.1862  -0.0779   0.1355   0.2353   0.5177   0.6313   0.7413   0.8953
     0.9490   0.9995   1.0267   1.0279   1.1031   1.1382   1.1883   3.7288
     4.2224   4.5612   4.7008   5.0482   5.3106   5.5052   7.6808   8.1846
     8.6862   8.8876

          k = 0.1251-0.0721 0.0000 ( 10876 PWs)   bands (ev):

   -42.7499  -3.2037  -2.7590  -2.2151  -2.1032  -2.0122  -1.8823  -1.1629
    -1.0310  -0.9514  -0.8835  -0.8569  -0.8192  -0.7030  -0.6508  -0.6311
    -0.5841  -0.5350  -0.5283  -0.4917  -0.4778  -0.4515  -0.3296  -0.2326
    -0.0109   0.0476   0.1024   0.1504   0.2455   0.2906   0.4702   0.4874
     0.7383   0.9492   0.9561   1.8894   2.9744   4.0743   4.8055   7.5266
     8.1093   8.4314

          k = 0.1251 0.0723 0.0000 ( 10875 PWs)   bands (ev):

   -42.7499  -3.2042  -2.7615  -2.2255  -2.1054  -2.0160  -1.8830  -1.1613
    -1.0315  -0.9539  -0.8855  -0.8562  -0.8096  -0.6985  -0.6502  -0.6260
    -0.5841  -0.5285  -0.5245  -0.4914  -0.4779  -0.4500  -0.3305  -0.2113
    -0.0349   0.0543   0.1086   0.1290   0.2474   0.2798   0.4743   0.4786
     0.7329   0.9509   0.9707   1.9203   2.9891   4.0585   4.8019   7.5206
     8.1041   8.4385

          k = 0.1251 0.2167 0.0000 ( 10868 PWs)   bands (ev):

   -42.7444  -2.4964  -2.1512  -1.7155  -1.7060  -1.6300  -1.5125  -1.3261
    -1.2542  -1.2108  -1.1294  -1.0308  -0.9828  -0.8444  -0.8079  -0.6200
    -0.6078  -0.5113  -0.4760  -0.4037  -0.3630  -0.1796  -0.1267  -0.0830
     0.0083   0.0726   0.1953   0.2336   0.3756   0.3891   0.4823   0.6472
     0.8068   0.8728   1.6342   2.7760   3.8381   4.9682   6.1028   8.1807
     8.7663   9.0924

          k = 0.1251 0.3611 0.0000 ( 10820 PWs)   bands (ev):

   -42.7364  -1.9638  -1.8537  -1.7903  -1.7316  -1.6631  -1.6050  -1.5159
    -1.3500  -1.3035  -1.1352  -0.9968  -0.8997  -0.7630  -0.7091  -0.5962
    -0.5240  -0.4990  -0.3079  -0.2514  -0.1699  -0.0485   0.0835   0.1614
     0.2428   0.4452   0.4966   0.7273   0.7650   0.8198   0.9722   1.4106
     1.5263   1.9422   2.9129   4.1066   5.2220   6.5096   7.9817   9.3708
    10.0982  10.4003

          k = 0.1251-0.6496 0.0000 ( 10762 PWs)   bands (ev):

   -42.7307  -2.1521  -2.0815  -2.0089  -1.9211  -1.8496  -1.7955  -1.7219
    -1.5727  -1.4648  -1.2160  -1.0177  -0.8310  -0.7181  -0.6432  -0.5030
    -0.4063  -0.1345  -0.0323   0.0260   0.2683   0.3497   0.4585   0.5420
     0.6285   0.6877   0.7492   0.8387   0.9608   1.0009   1.1418   3.5073
     3.7570   4.1529   4.8090   5.6018   6.4949   7.1423   7.9923   8.2969
     8.7207   9.4017

          k = 0.1251-0.5052 0.0000 ( 10760 PWs)   bands (ev):

   -42.7306  -2.1526  -2.0820  -2.0095  -1.9215  -1.8511  -1.7965  -1.7217
    -1.5745  -1.4681  -1.2220  -1.0183  -0.8291  -0.7147  -0.6495  -0.5034
    -0.3967  -0.1208  -0.0405   0.0296   0.2874   0.3484   0.4573   0.5414
     0.6293   0.6892   0.7489   0.8416   0.9606   1.0004   1.1421   3.4931
     3.7394   4.1323   4.7916   5.5957   6.4931   7.1414   8.0072   8.4008
     8.7442   9.3871

          k = 0.1251-0.3608 0.0000 ( 10818 PWs)   bands (ev):

   -42.7363  -1.9656  -1.8549  -1.7913  -1.7343  -1.6647  -1.6073  -1.5163
    -1.3556  -1.3091  -1.1441  -1.0020  -0.9049  -0.7610  -0.7008  -0.5835
    -0.5238  -0.4597  -0.2918  -0.2343  -0.1648  -0.0480   0.0849   0.1656
     0.2408   0.4482   0.4908   0.7234   0.7654   0.8187   0.9729   1.3884
     1.5154   1.9152   2.8764   4.0614   5.2269   6.5407   7.9857   9.3742
    10.1396  10.3712

          k = 0.1251-0.2164 0.0000 ( 10863 PWs)   bands (ev):

   -42.7443  -2.4959  -2.1484  -1.7119  -1.6934  -1.6236  -1.5074  -1.3244
    -1.2482  -1.2100  -1.1296  -1.0363  -0.9809  -0.8477  -0.8101  -0.6243
    -0.6127  -0.5109  -0.4696  -0.4089  -0.3529  -0.1866  -0.1136  -0.0890
    -0.0024   0.0652   0.1800   0.2549   0.3842   0.3880   0.4821   0.6534
     0.7909   0.8734   1.5981   2.7220   3.8306   4.9979   6.1036   8.1950
     8.7887   9.0612

          k = 0.2502-0.1441 0.0000 ( 10871 PWs)   bands (ev):

   -42.7421  -2.3241  -2.0594  -1.8987  -1.8116  -1.6866  -1.5800  -1.4592
    -1.3606  -1.1875  -1.0694  -0.9338  -0.7935  -0.6455  -0.5952  -0.5531
    -0.4830  -0.3904  -0.3578  -0.2248  -0.1505  -0.0832  -0.0615   0.0392
     0.0866   0.0911   0.2385   0.2536   0.2966   0.4251   0.5406   0.7600
     0.8153   0.9880   1.8226   3.0482   4.1763   5.3817   6.6243   8.4997
     9.1043   9.4089

          k = 0.2502 0.0003 0.0000 ( 10868 PWs)   bands (ev):

   -42.7444  -2.4964  -2.1512  -1.7155  -1.7060  -1.6300  -1.5125  -1.3261
    -1.2542  -1.2108  -1.1294  -1.0308  -0.9828  -0.8444  -0.8079  -0.6200
    -0.6078  -0.5113  -0.4760  -0.4037  -0.3630  -0.1796  -0.1267  -0.0830
     0.0083   0.0726   0.1953   0.2336   0.3756   0.3891   0.4823   0.6472
     0.8068   0.8728   1.6342   2.7760   3.8381   4.9682   6.1028   8.1807
     8.7663   9.0923

          k = 0.2502 0.1447 0.0000 ( 10860 PWs)   bands (ev):

   -42.7422  -2.3253  -2.0646  -1.9094  -1.8359  -1.6946  -1.5986  -1.4561
    -1.3625  -1.1803  -1.0661  -0.9225  -0.7774  -0.6410  -0.5906  -0.5600
    -0.4661  -0.3792  -0.3725  -0.2210  -0.1674  -0.0803  -0.0713   0.0395
     0.0918   0.0926   0.2378   0.2586   0.2899   0.4174   0.5362   0.7556
     0.8379   0.9865   1.8748   3.1369   4.1885   5.3410   6.6355   8.4784
     9.0840   9.4358

          k = 0.2502 0.2890 0.0000 ( 10819 PWs)   bands (ev):

   -42.7365  -1.9655  -1.8508  -1.7953  -1.7401  -1.6663  -1.6038  -1.5405
    -1.3590  -1.2999  -1.1396  -0.9957  -0.8998  -0.7648  -0.6951  -0.6025
    -0.5225  -0.4715  -0.3054  -0.2548  -0.1645  -0.0426   0.0812   0.1513
     0.2401   0.4566   0.4906   0.7324   0.7633   0.8191   0.9723   1.4033
     1.5239   1.9484   2.9502   4.1863   5.2326   6.4832   8.0288   9.3610
    10.0650  10.3998

          k = 0.2502-0.7216 0.0000 ( 10755 PWs)   bands (ev):

   -42.7307  -1.8583  -1.8312  -1.6926  -1.6530  -1.5242  -1.4379  -1.3879
    -1.2622  -1.2368  -1.2208  -1.0601  -0.9756  -0.8639  -0.7668  -0.6308
    -0.5492  -0.4686  -0.3639  -0.2661  -0.1211  -0.0445   0.0846   0.1574
     0.2586   0.3390   0.5075   0.8052   0.9815   1.0184   1.1436   3.3952
     3.6193   4.1048   4.9610   5.9805   7.0783   8.2504   8.7254   9.6811
     9.8360   9.9801

          k = 0.2502-0.5773 0.0000 ( 10783 PWs)   bands (ev):

   -42.7284  -1.9175  -1.7058  -1.6846  -1.6037  -1.5395  -1.4866  -1.4255
    -1.3580  -1.2162  -1.1573  -1.0973  -0.9646  -0.8365  -0.8001  -0.5944
    -0.4957  -0.4235  -0.3032  -0.1614  -0.0909  -0.0359   0.1790   0.2911
     0.3350   0.4141   0.6714   0.7811   0.8477   0.9445   0.9891   5.4790
     6.1040   6.1681   6.3167   6.6719   7.1336   7.7226   8.0331   8.4001
     9.0757   9.4028

          k = 0.2502-0.4329 0.0000 ( 10756 PWs)   bands (ev):

   -42.7306  -1.8622  -1.8325  -1.6946  -1.6667  -1.5304  -1.4387  -1.3915
    -1.2654  -1.2446  -1.2206  -1.0607  -0.9582  -0.8653  -0.7434  -0.6108
    -0.5488  -0.4420  -0.3605  -0.2676  -0.1221  -0.0446   0.1011   0.1497
     0.2575   0.3337   0.5011   0.8003   0.9802   1.0195   1.1440   3.3812
     3.5989   4.0587   4.8753   5.8843   7.0770   8.4274   8.9959   9.6068
     9.7727   9.9248

          k = 0.2502-0.2885 0.0000 ( 10818 PWs)   bands (ev):

   -42.7363  -1.9656  -1.8549  -1.7913  -1.7343  -1.6647  -1.6073  -1.5163
    -1.3556  -1.3091  -1.1441  -1.0020  -0.9049  -0.7610  -0.7008  -0.5835
    -0.5238  -0.4597  -0.2918  -0.2343  -0.1648  -0.0480   0.0849   0.1656
     0.2408   0.4482   0.4908   0.7234   0.7654   0.8187   0.9729   1.3884
     1.5154   1.9152   2.8764   4.0614   5.2269   6.5407   7.9857   9.3741
    10.1396  10.3710

          k = 0.3754-0.2162 0.0000 ( 10791 PWs)   bands (ev):

   -42.7340  -2.2144  -2.1781  -2.0658  -2.0253  -1.9545  -1.8597  -1.8104
    -1.6804  -1.4327  -1.1081  -0.9122  -0.7683  -0.6895  -0.5825  -0.4649
    -0.2754  -0.1561  -0.0646   0.2216   0.2795   0.5139   0.5407   0.6739
     0.7244   0.7267   0.8025   0.8205   0.8654   0.9135   1.0474   1.5472
     1.8986   2.3526   3.3116   4.4830   5.6841   7.0521   8.2810   8.8027
     9.2708   9.9305

          k = 0.3754-0.0718 0.0000 ( 10820 PWs)   bands (ev):

   -42.7364  -1.9638  -1.8537  -1.7903  -1.7316  -1.6631  -1.6050  -1.5159
    -1.3500  -1.3035  -1.1352  -0.9968  -0.8997  -0.7630  -0.7091  -0.5962
    -0.5240  -0.4990  -0.3079  -0.2514  -0.1699  -0.0485   0.0835   0.1614
     0.2428   0.4452   0.4966   0.7273   0.7650   0.8198   0.9722   1.4106
     1.5263   1.9422   2.9129   4.1066   5.2220   6.5096   7.9817   9.3708
    10.0980  10.4008

          k = 0.3754 0.0726 0.0000 ( 10819 PWs)   bands (ev):

   -42.7365  -1.9655  -1.8508  -1.7953  -1.7401  -1.6663  -1.6038  -1.5405
    -1.3590  -1.2999  -1.1396  -0.9957  -0.8998  -0.7648  -0.6951  -0.6025
    -0.5225  -0.4715  -0.3054  -0.2548  -0.1645  -0.0426   0.0812   0.1513
     0.2401   0.4566   0.4906   0.7324   0.7633   0.8191   0.9723   1.4033
     1.5239   1.9484   2.9502   4.1863   5.2326   6.4832   8.0288   9.3610
    10.0651  10.3999

          k = 0.3754 0.2170 0.0000 ( 10794 PWs)   bands (ev):

   -42.7342  -2.2194  -2.1776  -2.0711  -2.0407  -1.9592  -1.8877  -1.8043
    -1.6824  -1.4218  -1.1025  -0.9105  -0.7677  -0.6974  -0.5489  -0.4825
    -0.2690  -0.1855  -0.0484   0.2059   0.2928   0.5147   0.5335   0.6805
     0.7254   0.7293   0.8010   0.8206   0.8640   0.9134   1.0462   1.5318
     1.8858   2.3618   3.4088   4.7138   5.7762   6.9747   8.5090   8.8108
     9.1893   9.6105

          k = 0.3754-0.7937 0.0000 ( 10771 PWs)   bands (ev):

   -42.7309  -2.1497  -2.0848  -2.0109  -1.9286  -1.8548  -1.7942  -1.7461
    -1.5736  -1.4575  -1.2160  -1.0184  -0.8491  -0.7180  -0.6288  -0.4935
    -0.4194  -0.1224  -0.0493   0.0355   0.2762   0.3400   0.4695   0.5465
     0.6315   0.6897   0.7494   0.8481   0.9609   1.0015   1.1416   3.4245
     3.7097   4.1633   4.9735   5.9679   6.8467   7.2108   7.6413   8.1160
     8.7314   9.2292

          k = 0.3754-0.6493 0.0000 ( 10768 PWs)   bands (ev):

   -42.7285  -1.9142  -1.7090  -1.6760  -1.6052  -1.5401  -1.4721  -1.4267
    -1.3571  -1.2190  -1.1625  -1.0980  -0.9972  -0.8403  -0.8080  -0.5921
    -0.4955  -0.4212  -0.3062  -0.1633  -0.0911  -0.0333   0.1796   0.2888
     0.3485   0.4231   0.6715   0.7821   0.8481   0.9436   0.9888   5.4359
     6.1473   6.2414   6.5418   6.8073   7.0506   7.6412   7.9061   8.5372
     9.1115   9.3306

          k = 0.3754-0.5049 0.0000 ( 10783 PWs)   bands (ev):

   -42.7284  -1.9175  -1.7058  -1.6846  -1.6037  -1.5395  -1.4866  -1.4255
    -1.3580  -1.2162  -1.1573  -1.0973  -0.9646  -0.8365  -0.8001  -0.5944
    -0.4957  -0.4235  -0.3032  -0.1614  -0.0909  -0.0359   0.1790   0.2911
     0.3350   0.4141   0.6714   0.7811   0.8477   0.9445   0.9891   5.4790
     6.1040   6.1681   6.3167   6.6719   7.1336   7.7226   8.0331   8.4001
     9.0757   9.4028

          k = 0.3754-0.3605 0.0000 ( 10760 PWs)   bands (ev):

   -42.7306  -2.1526  -2.0820  -2.0095  -1.9215  -1.8511  -1.7965  -1.7217
    -1.5745  -1.4681  -1.2220  -1.0183  -0.8291  -0.7147  -0.6495  -0.5034
    -0.3967  -0.1208  -0.0405   0.0296   0.2874   0.3484   0.4573   0.5414
     0.6293   0.6892   0.7489   0.8416   0.9606   1.0004   1.1421   3.4931
     3.7394   4.1323   4.7916   5.5957   6.4931   7.1414   8.0072   8.4008
     8.7442   9.3871

          k =-0.5005 0.2882 0.0000 ( 10736 PWs)   bands (ev):

   -42.7306  -2.3462  -2.2921  -2.2025  -2.1589  -2.0430  -1.9890  -1.9501
    -1.8238  -1.5616  -1.1795  -0.9869  -0.8595  -0.7592  -0.5205  -0.4166
    -0.1862  -0.0779   0.1355   0.2353   0.5177   0.6313   0.7413   0.8953
     0.9490   0.9995   1.0267   1.0279   1.1031   1.1382   1.1883   3.7288
     4.2224   4.5613   4.7008   5.0482   5.3106   5.5052   7.6808   8.1846
     8.6861   8.8876

          k =-0.5005 0.4326 0.0000 ( 10762 PWs)   bands (ev):

   -42.7307  -2.1521  -2.0815  -2.0089  -1.9211  -1.8496  -1.7955  -1.7219
    -1.5727  -1.4648  -1.2160  -1.0177  -0.8310  -0.7181  -0.6432  -0.5030
    -0.4063  -0.1345  -0.0323   0.0260   0.2684   0.3497   0.4585   0.5420
     0.6285   0.6877   0.7492   0.8387   0.9608   1.0009   1.1418   3.5073
     3.7570   4.1529   4.8090   5.6018   6.4949   7.1423   7.9923   8.2969
     8.7206   9.4017

          k =-0.5005 0.5770 0.0000 ( 10755 PWs)   bands (ev):

   -42.7307  -1.8583  -1.8312  -1.6926  -1.6530  -1.5242  -1.4379  -1.3879
    -1.2622  -1.2368  -1.2208  -1.0601  -0.9757  -0.8639  -0.7668  -0.6308
    -0.5492  -0.4686  -0.3639  -0.2661  -0.1211  -0.0445   0.0846   0.1574
     0.2586   0.3390   0.5075   0.8052   0.9815   1.0184   1.1436   3.3952
     3.6193   4.1048   4.9610   5.9805   7.0783   8.2504   8.7254   9.6811
     9.8360   9.9801

          k =-0.5005 0.7214 0.0000 ( 10771 PWs)   bands (ev):

   -42.7309  -2.1497  -2.0848  -2.0109  -1.9286  -1.8548  -1.7942  -1.7461
    -1.5736  -1.4575  -1.2160  -1.0184  -0.8491  -0.7180  -0.6288  -0.4935
    -0.4194  -0.1224  -0.0493   0.0355   0.2762   0.3400   0.4695   0.5465
     0.6315   0.6897   0.7494   0.8481   0.9609   1.0015   1.1416   3.4245
     3.7097   4.1633   4.9735   5.9679   6.8467   7.2108   7.6413   8.1160
     8.7316   9.2298

          k =-0.5005-0.2893 0.0000 ( 10756 PWs)   bands (ev):

   -42.7309  -2.3496  -2.2924  -2.2053  -2.1737  -2.0487  -2.0166  -1.9446
    -1.8250  -1.5523  -1.1745  -0.9870  -0.8594  -0.7673  -0.5387  -0.3588
    -0.2166  -0.0714   0.1574   0.2179   0.5263   0.6225   0.7474   0.8940
     0.9547   0.9995   1.0278   1.0302   1.1027   1.1381   1.1881   3.4900
     4.0057   4.5469   4.9797   5.2825   5.4986   6.7245   7.1306   7.7510
     8.3265   8.8967

     the Fermi energy is     3.9337 ev

!    total energy              =    -520.63114730 Ry
     estimated scf accuracy    <       0.00000047 Ry
     smearing contrib. (-TS)   =      -0.00179377 Ry
     internal energy E=F+TS    =    -520.62935353 Ry

     The total energy is F=E-TS. E is the sum of the following terms:
     one-electron contribution =   -6622.63108268 Ry
     hartree contribution      =    3362.75185639 Ry
     xc contribution           =    -137.64495559 Ry
     ewald contribution        =    2877.08755817 Ry
     DFT-D3 Dispersion         =      -0.19272981 Ry

     convergence has been achieved in  12 iterations

     negative rho (up, down):  7.911E-06 0.000E+00

     Forces acting on atoms (cartesian axes, Ry/au):

     atom    1 type  2   force =    -0.00003066   -0.00002000    0.00026343
     atom    2 type  2   force =    -0.00021551   -0.00012529    0.00606682
     atom    3 type  2   force =    -0.00007978   -0.00004398   -0.00118409
     atom    4 type  2   force =     0.00008616    0.00005311   -0.00393221
     atom    5 type  2   force =    -0.00006806   -0.00004048    0.00217555
     atom    6 type  2   force =     0.00056663    0.00032312   -0.01666557
     atom    7 type  1   force =    -0.00025880   -0.00014649    0.01327606
     The non-local contrib.  to forces
     atom    1 type  2   force =     0.00260443    0.00150297   -0.06212796
     atom    2 type  2   force =     0.00159760    0.00092205   -0.03358988
     atom    3 type  2   force =    -0.00060242   -0.00034498    0.00130494
     atom    4 type  2   force =    -0.00062589   -0.00035982   -0.00131939
     atom    5 type  2   force =     0.00170619    0.00098291    0.01337039
     atom    6 type  2   force =    -0.00108705   -0.00063385    0.02152960
     atom    7 type  1   force =    -0.00213587   -0.00122928    0.05643025
     The ionic contribution  to forces
     atom    1 type  2   force =     7.13688336    4.12573390 -163.21476471
     atom    2 type  2   force =     4.43583761    2.56429658 -101.44402754
     atom    3 type  2   force =     1.71486381    0.99133914  -39.21755209
     atom    4 type  2   force =    -1.00780701   -0.58259722   23.04772900
     atom    5 type  2   force =    -3.75707095   -2.17191357   85.90330634
     atom    6 type  2   force =    -6.43774079   -3.72156871  147.22525602
     atom    7 type  1   force =    -2.08496602   -1.20529012   47.70005298
     The local contribution  to forces
     atom    1 type  2   force =    -7.13909009   -4.12700846  163.26726863
     atom    2 type  2   force =    -4.43749563   -2.56525288  101.47992155
     atom    3 type  2   force =    -1.71434744   -0.99104035   39.21515214
     atom    4 type  2   force =     1.00850061    0.58299747  -23.04964034
     atom    5 type  2   force =     3.75511142    2.17078340  -85.91039299
     atom    6 type  2   force =     6.43943019    3.72254379 -147.26453077
     atom    7 type  1   force =     2.08676817    1.20632934  -47.74112813
     The core correction contribution to forces
     atom    1 type  2   force =    -0.00024776   -0.00014312    0.00561469
     atom    2 type  2   force =     0.00001100    0.00000648   -0.00021615
     atom    3 type  2   force =    -0.00000817   -0.00000474    0.00002060
     atom    4 type  2   force =    -0.00003149   -0.00001832    0.00066386
     atom    5 type  2   force =     0.00007018    0.00004050   -0.00095264
     atom    6 type  2   force =    -0.00022685   -0.00013113    0.00487412
     atom    7 type  1   force =     0.00000000    0.00000000    0.00000000
     The Hubbard contrib.    to forces
     atom    1 type  2   force =     0.00000000    0.00000000    0.00000000
     atom    2 type  2   force =     0.00000000    0.00000000    0.00000000
     atom    3 type  2   force =     0.00000000    0.00000000    0.00000000
     atom    4 type  2   force =     0.00000000    0.00000000    0.00000000
     atom    5 type  2   force =     0.00000000    0.00000000    0.00000000
     atom    6 type  2   force =     0.00000000    0.00000000    0.00000000
     atom    7 type  1   force =     0.00000000    0.00000000    0.00000000
     The SCF correction term to forces
     atom    1 type  2   force =     0.00003969    0.00002199   -0.00083681
     atom    2 type  2   force =    -0.00000639   -0.00000528    0.00025479
     atom    3 type  2   force =     0.00003924    0.00002122   -0.00074872
     atom    4 type  2   force =     0.00005209    0.00003218   -0.00148675
     atom    5 type  2   force =     0.00000479    0.00000242   -0.00105320
     atom    6 type  2   force =     0.00000212    0.00000369    0.00045990
     atom    7 type  1   force =    -0.00002011   -0.00001145    0.00036745

     DFT-D3 dispersion contribution to forces:
     atom    1 type  2   force =    -0.00021849   -0.00012630    0.00499661
     atom    2 type  2   force =    -0.00015790   -0.00009128    0.00361106
     atom    3 type  2   force =    -0.00002300   -0.00001330    0.00052607
     atom    4 type  2   force =    -0.00000037   -0.00000022    0.00000844
     atom    5 type  2   force =     0.00011211    0.00006482   -0.00221532
     atom    6 type  2   force =     0.00019081    0.00011030   -0.00436740
     atom    7 type  1   force =     0.00009683    0.00005598   -0.00255946

     Total force =     0.022651     Total SCF correction =     0.002236


     Computing stress (Cartesian axis) and pressure


     negative rho (up, down):  7.911E-06 0.000E+00
          total   stress  (Ry/bohr**3)                   (kbar)     P=       -9.85
  -0.00007339  -0.00002498   0.00000176          -10.80       -3.68        0.26
  -0.00002498  -0.00004460   0.00000102           -3.68       -6.56        0.15
   0.00000176   0.00000102  -0.00008288            0.26        0.15      -12.19


     BFGS Geometry Optimization
     Energy error            =      0.0E+00 Ry
     Gradient error          =      1.7E-02 Ry/Bohr

     number of scf cycles    =   1
     number of bfgs steps    =   0

     energy             new  =    -520.6311472987 Ry

     new trust radius        =       0.0166783276 bohr
     new conv_thr            =       0.0000010000 Ry


ATOMIC_POSITIONS (angstrom)
Ag            1.9495804742        0.5683141655       10.1269233942
Ag            1.8441489938        2.1834972028       12.5388902485
Ag            3.1913828977        1.2861853628       14.9439490684
Ag            1.6391851864        0.3888818803       17.2246066714
Ag            1.5351772440        2.0048881544       19.6044571038
Ag            2.8812076896        1.1068763783       22.0370729327
Li            2.0671804632        2.3124331511       24.0529173604



     Writing config-only to output data dir ./Ag_mp-124_111_bridge_1/Ag_mp-124_111_bridge_1.save/
     NEW-OLD atomic charge density approx. for the potential

     negative rho (up, down):  8.391E-06 0.000E+00

     total cpu time spent up to now is       16.1 secs

     per-process dynamical memory:   187.6 Mb

     Self-consistent Calculation

     iteration #  1     ecut=    55.00 Ry     beta= 0.30
     Davidson diagonalization with overlap
     ethr =  1.00E-06,  avg # of iterations =  4.0

     negative rho (up, down):  8.274E-06 0.000E+00

     total cpu time spent up to now is       16.8 secs

     total energy              =    -520.63143753 Ry
     estimated scf accuracy    <       0.00038977 Ry

     iteration #  2     ecut=    55.00 Ry     beta= 0.30
     Davidson diagonalization with overlap
     ethr =  5.65E-07,  avg # of iterations =  9.8

     negative rho (up, down):  8.778E-06 0.000E+00

     total cpu time spent up to now is       17.4 secs

     total energy              =    -520.62966902 Ry
     estimated scf accuracy    <       0.14025960 Ry

     iteration #  3     ecut=    55.00 Ry     beta= 0.30
     Davidson diagonalization with overlap
     ethr =  5.65E-07,  avg # of iterations =  9.1

     negative rho (up, down):  9.515E-06 0.000E+00

     total cpu time spent up to now is       18.0 secs

     total energy              =    -520.63160424 Ry
     estimated scf accuracy    <       0.00028022 Ry

     iteration #  4     ecut=    55.00 Ry     beta= 0.30
     Davidson diagonalization with overlap
     ethr =  4.06E-07,  avg # of iterations =  1.2

     negative rho (up, down):  9.479E-06 0.000E+00

     total cpu time spent up to now is       18.4 secs

     total energy              =    -520.63161651 Ry
     estimated scf accuracy    <       0.00016658 Ry

     iteration #  5     ecut=    55.00 Ry     beta= 0.30
     Davidson diagonalization with overlap
     ethr =  2.41E-07,  avg # of iterations =  1.3

     negative rho (up, down):  8.853E-06 0.000E+00

     total cpu time spent up to now is       18.7 secs

     total energy              =    -520.63162318 Ry
     estimated scf accuracy    <       0.00000814 Ry

     iteration #  6     ecut=    55.00 Ry     beta= 0.30
     Davidson diagonalization with overlap
     ethr =  1.18E-08,  avg # of iterations =  1.7

     negative rho (up, down):  8.744E-06 0.000E+00

     total cpu time spent up to now is       19.1 secs

     total energy              =    -520.63162380 Ry
     estimated scf accuracy    <       0.00000235 Ry

     iteration #  7     ecut=    55.00 Ry     beta= 0.30
     Davidson diagonalization with overlap
     ethr =  3.41E-09,  avg # of iterations =  1.6

     negative rho (up, down):  8.159E-06 0.000E+00

     total cpu time spent up to now is       19.5 secs

     End of self-consistent calculation

          k = 0.0000 0.0000 0.0000 ( 10919 PWs)   bands (ev):

   -42.7665  -3.6214  -3.1589  -2.5908  -2.3641  -2.2987  -2.1897  -1.0273
    -0.8262  -0.8225  -0.8183  -0.7966  -0.7546  -0.7517  -0.7442  -0.7341
    -0.6792  -0.6703  -0.6377  -0.6351  -0.5348  -0.5346  -0.1570   0.0741
     0.1337   0.2054   0.2079   0.2295   0.2407   0.4627   0.4753   0.7173
     0.7253   0.9302   0.9322   1.0375   2.2622   3.5119   3.9764   7.1861
     7.7862   8.1348

          k = 0.0000 0.1444 0.0000 ( 10876 PWs)   bands (ev):

   -42.7632  -3.2102  -2.7655  -2.2174  -2.1077  -2.0173  -1.8838  -1.1633
    -1.0357  -0.9555  -0.8885  -0.8602  -0.8197  -0.7032  -0.6552  -0.6328
    -0.5882  -0.5382  -0.5313  -0.4947  -0.4808  -0.4542  -0.3325  -0.2305
    -0.0129   0.0467   0.1003   0.1489   0.2439   0.2901   0.4661   0.4869
     0.7361   0.9464   0.9533   1.8867   2.9695   4.0661   4.8000   7.5290
     8.1291   8.4343

          k = 0.0000 0.2888 0.0000 ( 10871 PWs)   bands (ev):

   -42.7554  -2.3303  -2.0657  -1.9040  -1.8158  -1.6910  -1.5818  -1.4647
    -1.3641  -1.1917  -1.0720  -0.9348  -0.7915  -0.6477  -0.5978  -0.5589
    -0.4834  -0.3918  -0.3639  -0.2262  -0.1536  -0.0846  -0.0645   0.0390
     0.0850   0.0894   0.2357   0.2511   0.2955   0.4240   0.5391   0.7577
     0.8144   0.9853   1.8227   3.0441   4.1703   5.3762   6.6204   8.5014
     9.1147   9.4183

          k = 0.0000 0.4332 0.0000 ( 10791 PWs)   bands (ev):

   -42.7473  -2.2195  -2.1840  -2.0714  -2.0298  -1.9603  -1.8602  -1.8161
    -1.6831  -1.4337  -1.1073  -0.9136  -0.7713  -0.6953  -0.5820  -0.4708
    -0.2766  -0.1568  -0.0660   0.2223   0.2788   0.5111   0.5388   0.6757
     0.7215   0.7237   0.7998   0.8175   0.8626   0.9096   1.0446   1.5439
     1.8957   2.3531   3.3113   4.4765   5.6794   7.0483   8.2788   8.7999
     9.2678   9.9315

          k = 0.0000-0.5775 0.0000 ( 10736 PWs)   bands (ev):

   -42.7439  -2.3516  -2.2976  -2.2084  -2.1636  -2.0482  -1.9894  -1.9563
    -1.8261  -1.5620  -1.1780  -0.9894  -0.8627  -0.7651  -0.5264  -0.4134
    -0.1866  -0.0791   0.1347   0.2367   0.5159   0.6295   0.7396   0.8926
     0.9519   0.9966   1.0231   1.0237   1.0995   1.1356   1.1842   3.7241
     4.2186   4.5592   4.6992   5.0463   5.3073   5.5015   7.6784   8.1826
     8.6817   8.8874

          k = 0.1251-0.0721 0.0000 ( 10876 PWs)   bands (ev):

   -42.7632  -3.2102  -2.7655  -2.2174  -2.1077  -2.0173  -1.8838  -1.1633
    -1.0357  -0.9555  -0.8885  -0.8602  -0.8197  -0.7032  -0.6552  -0.6328
    -0.5882  -0.5382  -0.5313  -0.4947  -0.4808  -0.4542  -0.3325  -0.2305
    -0.0129   0.0467   0.1003   0.1489   0.2439   0.2901   0.4661   0.4869
     0.7361   0.9464   0.9533   1.8867   2.9695   4.0661   4.8000   7.5289
     8.1291   8.4342

          k = 0.1251 0.0723 0.0000 ( 10875 PWs)   bands (ev):

   -42.7632  -3.2108  -2.7679  -2.2271  -2.1098  -2.0211  -1.8845  -1.1619
    -1.0363  -0.9580  -0.8906  -0.8592  -0.8105  -0.6987  -0.6549  -0.6275
    -0.5883  -0.5323  -0.5275  -0.4943  -0.4814  -0.4521  -0.3334  -0.2101
    -0.0346   0.0530   0.1067   0.1284   0.2457   0.2795   0.4699   0.4780
     0.7305   0.9480   0.9673   1.9168   2.9835   4.0502   4.7964   7.5229
     8.1237   8.4413

          k = 0.1251 0.2167 0.0000 ( 10868 PWs)   bands (ev):

   -42.7577  -2.5030  -2.1579  -1.7194  -1.7108  -1.6355  -1.5147  -1.3280
    -1.2593  -1.2142  -1.1344  -1.0335  -0.9816  -0.8462  -0.8097  -0.6214
    -0.6110  -0.5159  -0.4779  -0.4035  -0.3651  -0.1821  -0.1274  -0.0848
     0.0047   0.0716   0.1928   0.2359   0.3746   0.3867   0.4784   0.6457
     0.8035   0.8705   1.6332   2.7716   3.8314   4.9620   6.0984   8.1823
     8.7798   9.0989

          k = 0.1251 0.3611 0.0000 ( 10820 PWs)   bands (ev):

   -42.7498  -1.9697  -1.8594  -1.7955  -1.7370  -1.6688  -1.6107  -1.5181
    -1.3508  -1.3082  -1.1365  -0.9995  -0.9011  -0.7667  -0.7106  -0.5996
    -0.5271  -0.4985  -0.3091  -0.2527  -0.1701  -0.0496   0.0815   0.1619
     0.2416   0.4436   0.4944   0.7257   0.7619   0.8166   0.9691   1.4081
     1.5228   1.9421   2.9123   4.1000   5.2158   6.5054   7.9781   9.3710
    10.1042  10.4110

          k = 0.1251-0.6496 0.0000 ( 10762 PWs)   bands (ev):

   -42.7440  -2.1579  -2.0868  -2.0146  -1.9264  -1.8543  -1.8017  -1.7229
    -1.5746  -1.4665  -1.2166  -1.0218  -0.8342  -0.7217  -0.6447  -0.5039
    -0.4083  -0.1351  -0.0322   0.0256   0.2681   0.3496   0.4572   0.5402
     0.6283   0.6849   0.7453   0.8373   0.9575   0.9986   1.1385   3.5038
     3.7538   4.1519   4.8048   5.5971   6.4923   7.1386   7.9896   8.2930
     8.7176   9.4020

          k = 0.1251-0.5052 0.0000 ( 10760 PWs)   bands (ev):

   -42.7440  -2.1584  -2.0873  -2.0151  -1.9269  -1.8558  -1.8027  -1.7227
    -1.5762  -1.4696  -1.2225  -1.0224  -0.8325  -0.7184  -0.6507  -0.5045
    -0.3989  -0.1219  -0.0403   0.0293   0.2868   0.3480   0.4560   0.5395
     0.6289   0.6864   0.7451   0.8402   0.9574   0.9981   1.1388   3.4904
     3.7368   4.1319   4.7876   5.5911   6.4906   7.1377   8.0045   8.3965
     8.7403   9.3870

          k = 0.1251-0.3608 0.0000 ( 10818 PWs)   bands (ev):

   -42.7497  -1.9715  -1.8605  -1.7965  -1.7397  -1.6702  -1.6130  -1.5185
    -1.3561  -1.3135  -1.1453  -1.0042  -0.9068  -0.7649  -0.7029  -0.5872
    -0.5267  -0.4610  -0.2931  -0.2363  -0.1655  -0.0491   0.0827   0.1661
     0.2398   0.4466   0.4886   0.7220   0.7623   0.8157   0.9698   1.3870
     1.5119   1.9160   2.8766   4.0557   5.2216   6.5364   7.9822   9.3748
    10.1447  10.3823

          k = 0.1251-0.2164 0.0000 ( 10863 PWs)   bands (ev):

   -42.7576  -2.5024  -2.1551  -1.7172  -1.6981  -1.6290  -1.5101  -1.3266
    -1.2534  -1.2133  -1.1348  -1.0384  -0.9802  -0.8492  -0.8119  -0.6255
    -0.6156  -0.5155  -0.4714  -0.4086  -0.3561  -0.1890  -0.1149  -0.0912
    -0.0055   0.0644   0.1771   0.2558   0.3832   0.3861   0.4781   0.6523
     0.7883   0.8710   1.5982   2.7188   3.8249   4.9917   6.0995   8.1970
     8.8023   9.0682

          k = 0.2502-0.1441 0.0000 ( 10871 PWs)   bands (ev):

   -42.7554  -2.3303  -2.0657  -1.9040  -1.8158  -1.6910  -1.5818  -1.4647
    -1.3641  -1.1917  -1.0720  -0.9348  -0.7915  -0.6477  -0.5978  -0.5589
    -0.4834  -0.3918  -0.3639  -0.2262  -0.1536  -0.0846  -0.0645   0.0390
     0.0850   0.0894   0.2357   0.2511   0.2955   0.4240   0.5391   0.7577
     0.8144   0.9853   1.8227   3.0441   4.1703   5.3762   6.6204   8.5014
     9.1147   9.4182

          k = 0.2502 0.0003 0.0000 ( 10868 PWs)   bands (ev):

   -42.7577  -2.5030  -2.1579  -1.7194  -1.7108  -1.6355  -1.5147  -1.3280
    -1.2593  -1.2142  -1.1344  -1.0335  -0.9816  -0.8462  -0.8097  -0.6214
    -0.6110  -0.5159  -0.4779  -0.4035  -0.3651  -0.1821  -0.1274  -0.0848
     0.0047   0.0716   0.1928   0.2359   0.3746   0.3867   0.4784   0.6457
     0.8035   0.8704   1.6332   2.7716   3.8314   4.9620   6.0984   8.1823
     8.7799   9.0989

          k = 0.2502 0.1447 0.0000 ( 10860 PWs)   bands (ev):

   -42.7555  -2.3316  -2.0709  -1.9137  -1.8392  -1.6985  -1.6001  -1.4616
    -1.3662  -1.1848  -1.0691  -0.9245  -0.7756  -0.6429  -0.5936  -0.5655
    -0.4668  -0.3806  -0.3782  -0.2223  -0.1689  -0.0816  -0.0737   0.0386
     0.0889   0.0927   0.2351   0.2559   0.2891   0.4165   0.5345   0.7531
     0.8363   0.9838   1.8737   3.1312   4.1807   5.3353   6.6308   8.4788
     9.0950   9.4432

          k = 0.2502 0.2890 0.0000 ( 10819 PWs)   bands (ev):

   -42.7498  -1.9713  -1.8565  -1.8002  -1.7450  -1.6720  -1.6094  -1.5411
    -1.3600  -1.3049  -1.1410  -0.9984  -0.9016  -0.7685  -0.6973  -0.6055
    -0.5254  -0.4718  -0.3060  -0.2558  -0.1652  -0.0436   0.0799   0.1522
     0.2384   0.4548   0.4884   0.7308   0.7603   0.8159   0.9692   1.4012
     1.5203   1.9482   2.9492   4.1785   5.2247   6.4787   8.0238   9.3583
    10.0716  10.4027

          k = 0.2502-0.7216 0.0000 ( 10755 PWs)   bands (ev):

   -42.7441  -1.8636  -1.8377  -1.6986  -1.6583  -1.5287  -1.4439  -1.3923
    -1.2668  -1.2390  -1.2238  -1.0633  -0.9754  -0.8667  -0.7688  -0.6296
    -0.5511  -0.4689  -0.3659  -0.2674  -0.1193  -0.0473   0.0873   0.1582
     0.2553   0.3360   0.5061   0.8048   0.9790   1.0157   1.1401   3.3926
     3.6159   4.1040   4.9569   5.9719   7.0723   8.2478   8.7261   9.6766
     9.8317   9.9748

          k = 0.2502-0.5773 0.0000 ( 10783 PWs)   bands (ev):

   -42.7418  -1.9233  -1.7120  -1.6908  -1.6093  -1.5441  -1.4913  -1.4324
    -1.3603  -1.2191  -1.1623  -1.1009  -0.9635  -0.8355  -0.8016  -0.5953
    -0.4982  -0.4262  -0.3032  -0.1617  -0.0927  -0.0338   0.1771   0.2905
     0.3395   0.4119   0.6675   0.7798   0.8446   0.9423   0.9857   5.4798
     6.1010   6.1630   6.3126   6.6690   7.1315   7.7192   8.0265   8.3960
     9.0720   9.3973

          k = 0.2502-0.4329 0.0000 ( 10756 PWs)   bands (ev):

   -42.7439  -1.8675  -1.8388  -1.7006  -1.6718  -1.5346  -1.4447  -1.3955
    -1.2706  -1.2456  -1.2237  -1.0643  -0.9585  -0.8683  -0.7459  -0.6108
    -0.5511  -0.4431  -0.3625  -0.2688  -0.1203  -0.0474   0.1034   0.1511
     0.2542   0.3306   0.4996   0.7999   0.9777   1.0168   1.1406   3.3797
     3.5962   4.0587   4.8718   5.8781   7.0734   8.4237   8.9924   9.6034
     9.7685   9.9202

          k = 0.2502-0.2885 0.0000 ( 10818 PWs)   bands (ev):

   -42.7497  -1.9715  -1.8605  -1.7965  -1.7397  -1.6702  -1.6130  -1.5185
    -1.3561  -1.3135  -1.1453  -1.0042  -0.9068  -0.7649  -0.7029  -0.5872
    -0.5267  -0.4610  -0.2931  -0.2363  -0.1655  -0.0491   0.0827   0.1661
     0.2398   0.4466   0.4886   0.7220   0.7623   0.8157   0.9698   1.3870
     1.5119   1.9160   2.8766   4.0557   5.2216   6.5364   7.9822   9.3748
    10.1447  10.3823

          k = 0.3754-0.2162 0.0000 ( 10791 PWs)   bands (ev):

   -42.7473  -2.2195  -2.1840  -2.0714  -2.0298  -1.9603  -1.8602  -1.8161
    -1.6831  -1.4337  -1.1073  -0.9136  -0.7713  -0.6953  -0.5820  -0.4708
    -0.2766  -0.1568  -0.0660   0.2223   0.2788   0.5111   0.5388   0.6757
     0.7215   0.7237   0.7998   0.8175   0.8626   0.9096   1.0446   1.5439
     1.8957   2.3531   3.3113   4.4765   5.6794   7.0483   8.2788   8.7999
     9.2678   9.9315

          k = 0.3754-0.0718 0.0000 ( 10820 PWs)   bands (ev):

   -42.7498  -1.9697  -1.8594  -1.7955  -1.7370  -1.6688  -1.6107  -1.5181
    -1.3508  -1.3082  -1.1365  -0.9995  -0.9011  -0.7667  -0.7106  -0.5996
    -0.5271  -0.4985  -0.3091  -0.2527  -0.1701  -0.0496   0.0815   0.1619
     0.2416   0.4436   0.4944   0.7257   0.7619   0.8166   0.9691   1.4081
     1.5228   1.9421   2.9123   4.1000   5.2158   6.5054   7.9781   9.3710
    10.1042  10.4110

          k = 0.3754 0.0726 0.0000 ( 10819 PWs)   bands (ev):

   -42.7498  -1.9713  -1.8565  -1.8002  -1.7450  -1.6720  -1.6094  -1.5411
    -1.3600  -1.3049  -1.1410  -0.9984  -0.9016  -0.7685  -0.6973  -0.6055
    -0.5254  -0.4718  -0.3060  -0.2558  -0.1652  -0.0436   0.0799   0.1522
     0.2384   0.4548   0.4884   0.7308   0.7603   0.8159   0.9692   1.4012
     1.5203   1.9482   2.9492   4.1785   5.2247   6.4787   8.0238   9.3583
    10.0716  10.4027

          k = 0.3754 0.2170 0.0000 ( 10794 PWs)   bands (ev):

   -42.7476  -2.2241  -2.1834  -2.0758  -2.0450  -1.9643  -1.8878  -1.8100
    -1.6852  -1.4231  -1.1018  -0.9119  -0.7708  -0.7029  -0.5502  -0.4878
    -0.2705  -0.1840  -0.0499   0.2071   0.2918   0.5121   0.5314   0.6820
     0.7224   0.7264   0.7982   0.8177   0.8612   0.9095   1.0434   1.5292
     1.8830   2.3620   3.4077   4.7046   5.7656   6.9694   8.5035   8.8065
     9.1824   9.6031

          k = 0.3754-0.7937 0.0000 ( 10771 PWs)   bands (ev):

   -42.7442  -2.1555  -2.0900  -2.0164  -1.9334  -1.8591  -1.8003  -1.7463
    -1.5757  -1.4593  -1.2166  -1.0224  -0.8519  -0.7215  -0.6311  -0.4953
    -0.4202  -0.1227  -0.0488   0.0346   0.2760   0.3398   0.4679   0.5446
     0.6310   0.6871   0.7456   0.8467   0.9577   0.9991   1.1383   3.4236
     3.7064   4.1625   4.9700   5.9588   6.8361   7.2040   7.6343   8.1124
     8.7278   9.2227

          k = 0.3754-0.6493 0.0000 ( 10768 PWs)   bands (ev):

   -42.7418  -1.9200  -1.7151  -1.6821  -1.6108  -1.5447  -1.4772  -1.4338
    -1.3594  -1.2211  -1.1668  -1.1023  -0.9951  -0.8392  -0.8099  -0.5931
    -0.4977  -0.4237  -0.3060  -0.1638  -0.0929  -0.0315   0.1778   0.2879
     0.3514   0.4223   0.6676   0.7809   0.8450   0.9414   0.9855   5.4361
     6.1427   6.2365   6.5384   6.8072   7.0472   7.6348   7.8984   8.5291
     9.1041   9.3246

          k = 0.3754-0.5049 0.0000 ( 10783 PWs)   bands (ev):

   -42.7418  -1.9233  -1.7120  -1.6908  -1.6093  -1.5441  -1.4913  -1.4324
    -1.3603  -1.2191  -1.1623  -1.1009  -0.9635  -0.8355  -0.8016  -0.5953
    -0.4982  -0.4262  -0.3032  -0.1617  -0.0927  -0.0338   0.1771   0.2905
     0.3395   0.4119   0.6675   0.7798   0.8446   0.9423   0.9857   5.4798
     6.1010   6.1630   6.3126   6.6690   7.1315   7.7192   8.0265   8.3960
     9.0720   9.3973

          k = 0.3754-0.3605 0.0000 ( 10760 PWs)   bands (ev):

   -42.7440  -2.1584  -2.0873  -2.0151  -1.9269  -1.8558  -1.8027  -1.7227
    -1.5762  -1.4696  -1.2225  -1.0224  -0.8325  -0.7184  -0.6507  -0.5045
    -0.3989  -0.1219  -0.0403   0.0293   0.2868   0.3480   0.4560   0.5395
     0.6289   0.6864   0.7451   0.8402   0.9574   0.9981   1.1388   3.4904
     3.7368   4.1319   4.7876   5.5911   6.4906   7.1377   8.0045   8.3965
     8.7403   9.3870

          k =-0.5005 0.2882 0.0000 ( 10736 PWs)   bands (ev):

   -42.7439  -2.3516  -2.2976  -2.2084  -2.1636  -2.0482  -1.9894  -1.9563
    -1.8261  -1.5620  -1.1780  -0.9894  -0.8627  -0.7651  -0.5264  -0.4134
    -0.1866  -0.0791   0.1347   0.2367   0.5159   0.6295   0.7396   0.8926
     0.9519   0.9966   1.0231   1.0237   1.0995   1.1356   1.1842   3.7241
     4.2187   4.5592   4.6992   5.0463   5.3073   5.5015   7.6784   8.1826
     8.6817   8.8874

          k =-0.5005 0.4326 0.0000 ( 10762 PWs)   bands (ev):

   -42.7440  -2.1579  -2.0868  -2.0146  -1.9264  -1.8543  -1.8017  -1.7229
    -1.5746  -1.4665  -1.2166  -1.0218  -0.8342  -0.7217  -0.6447  -0.5039
    -0.4083  -0.1351  -0.0322   0.0256   0.2681   0.3496   0.4572   0.5402
     0.6283   0.6849   0.7453   0.8373   0.9575   0.9986   1.1385   3.5038
     3.7538   4.1519   4.8048   5.5971   6.4923   7.1386   7.9896   8.2930
     8.7176   9.4020

          k =-0.5005 0.5770 0.0000 ( 10755 PWs)   bands (ev):

   -42.7441  -1.8636  -1.8377  -1.6986  -1.6583  -1.5287  -1.4439  -1.3923
    -1.2668  -1.2390  -1.2238  -1.0633  -0.9754  -0.8667  -0.7688  -0.6296
    -0.5511  -0.4689  -0.3659  -0.2674  -0.1193  -0.0473   0.0873   0.1582
     0.2553   0.3360   0.5061   0.8048   0.9790   1.0157   1.1401   3.3926
     3.6159   4.1040   4.9569   5.9719   7.0723   8.2478   8.7261   9.6766
     9.8317   9.9748

          k =-0.5005 0.7214 0.0000 ( 10771 PWs)   bands (ev):

   -42.7442  -2.1555  -2.0900  -2.0164  -1.9334  -1.8591  -1.8003  -1.7463
    -1.5757  -1.4593  -1.2166  -1.0224  -0.8519  -0.7215  -0.6311  -0.4953
    -0.4202  -0.1227  -0.0488   0.0346   0.2760   0.3398   0.4679   0.5446
     0.6310   0.6871   0.7456   0.8467   0.9577   0.9991   1.1383   3.4236
     3.7064   4.1625   4.9700   5.9588   6.8361   7.2040   7.6343   8.1124
     8.7278   9.2227

          k =-0.5005-0.2893 0.0000 ( 10756 PWs)   bands (ev):

   -42.7443  -2.3547  -2.2978  -2.2107  -2.1781  -2.0521  -2.0178  -1.9508
    -1.8273  -1.5528  -1.1728  -0.9897  -0.8626  -0.7728  -0.5439  -0.3589
    -0.2147  -0.0730   0.1567   0.2198   0.5244   0.6206   0.7458   0.8912
     0.9573   0.9966   1.0231   1.0273   1.0991   1.1355   1.1840   3.4920
     4.0034   4.5454   4.9764   5.2782   5.4947   6.7031   7.1137   7.7470
     8.3221   8.8946

     the Fermi energy is     3.9293 ev

!    total energy              =    -520.63162386 Ry
     estimated scf accuracy    <       0.00000041 Ry
     smearing contrib. (-TS)   =      -0.00179424 Ry
     internal energy E=F+TS    =    -520.62982962 Ry

     The total energy is F=E-TS. E is the sum of the following terms:
     one-electron contribution =   -6627.29847563 Ry
     hartree contribution      =    3365.07361981 Ry
     xc contribution           =    -137.64346227 Ry
     ewald contribution        =    2879.43127605 Ry
     DFT-D3 Dispersion         =      -0.19278758 Ry

     convergence has been achieved in   7 iterations

     negative rho (up, down):  8.159E-06 0.000E+00

     Forces acting on atoms (cartesian axes, Ry/au):

     atom    1 type  2   force =    -0.00004383   -0.00002451    0.00047976
     atom    2 type  2   force =    -0.00017009   -0.00010048    0.00495981
     atom    3 type  2   force =    -0.00009200   -0.00005484   -0.00071591
     atom    4 type  2   force =     0.00005106    0.00003020   -0.00275461
     atom    5 type  2   force =    -0.00001252   -0.00000695    0.00099891
     atom    6 type  2   force =     0.00044757    0.00025940   -0.01439413
     atom    7 type  1   force =    -0.00018018   -0.00010281    0.01142618
     The non-local contrib.  to forces
     atom    1 type  2   force =     0.00260039    0.00150314   -0.06207333
     atom    2 type  2   force =     0.00163884    0.00094448   -0.03442346
     atom    3 type  2   force =    -0.00061579   -0.00035925    0.00199944
     atom    4 type  2   force =    -0.00062881   -0.00036407   -0.00060454
     atom    5 type  2   force =     0.00175272    0.00101230    0.01202724
     atom    6 type  2   force =    -0.00105599   -0.00061063    0.02090908
     atom    7 type  1   force =    -0.00209698   -0.00120816    0.05548989
     The ionic contribution  to forces
     atom    1 type  2   force =     7.13801153    4.12638654 -163.24010176
     atom    2 type  2   force =     4.43946306    2.56639279 -101.52865182
     atom    3 type  2   force =     1.71524162    0.99155703  -39.22462900
     atom    4 type  2   force =    -1.00881273   -0.58318040   23.07124083
     atom    5 type  2   force =    -3.75580416   -2.17118076   85.87255828
     atom    6 type  2   force =    -6.44496318   -3.72573993  147.39026165
     atom    7 type  1   force =    -2.08313614   -1.20423528   47.65932181
     The local contribution  to forces
     atom    1 type  2   force =    -7.14028295   -4.12770023  163.29417734
     atom    2 type  2   force =    -4.44118165   -2.56738573  101.56593888
     atom    3 type  2   force =    -1.71462827   -0.99120207   39.22005299
     atom    4 type  2   force =     1.00956154    0.58361348  -23.07497390
     atom    5 type  2   force =     3.75387170    2.17006354  -85.88076397
     atom    6 type  2   force =     6.44643689    3.72659301 -147.42436770
     atom    7 type  1   force =     2.08494745    1.20527848  -47.70070968
     The core correction contribution to forces
     atom    1 type  2   force =    -0.00024488   -0.00014161    0.00555339
     atom    2 type  2   force =     0.00000525    0.00000308   -0.00007714
     atom    3 type  2   force =    -0.00000624   -0.00000361   -0.00002381
     atom    4 type  2   force =    -0.00002805   -0.00001622    0.00057311
     atom    5 type  2   force =     0.00006076    0.00003521   -0.00077286
     atom    6 type  2   force =    -0.00020807   -0.00012024    0.00446036
     atom    7 type  1   force =     0.00000000    0.00000000    0.00000000
     The Hubbard contrib.    to forces
     atom    1 type  2   force =     0.00000000    0.00000000    0.00000000
     atom    2 type  2   force =     0.00000000    0.00000000    0.00000000
     atom    3 type  2   force =     0.00000000    0.00000000    0.00000000
     atom    4 type  2   force =     0.00000000    0.00000000    0.00000000
     atom    5 type  2   force =     0.00000000    0.00000000    0.00000000
     atom    6 type  2   force =     0.00000000    0.00000000    0.00000000
     atom    7 type  1   force =     0.00000000    0.00000000    0.00000000
     The SCF correction term to forces
     atom    1 type  2   force =     0.00009463    0.00005530   -0.00214001
     atom    2 type  2   force =     0.00006830    0.00003864   -0.00155833
     atom    3 type  2   force =    -0.00005616   -0.00003225    0.00129359
     atom    4 type  2   force =    -0.00003681   -0.00002123    0.00094129
     atom    5 type  2   force =     0.00000118    0.00000089    0.00003117
     atom    6 type  2   force =     0.00004873    0.00002684   -0.00128836
     atom    7 type  1   force =     0.00001340    0.00000790   -0.00021831

     DFT-D3 dispersion contribution to forces:
     atom    1 type  2   force =    -0.00021811   -0.00012609    0.00498589
     atom    2 type  2   force =    -0.00015944   -0.00009217    0.00365344
     atom    3 type  2   force =    -0.00002270   -0.00001312    0.00051265
     atom    4 type  2   force =     0.00000036    0.00000021   -0.00000964
     atom    5 type  2   force =     0.00010972    0.00006344   -0.00215919
     atom    6 type  2   force =     0.00019364    0.00011193   -0.00444739
     atom    7 type  1   force =     0.00009653    0.00005581   -0.00253576

     Total force =     0.019288     Total SCF correction =     0.003362
     SCF correction compared to forces is large: reduce conv_thr to get better values


     Computing stress (Cartesian axis) and pressure


     negative rho (up, down):  8.159E-06 0.000E+00
          total   stress  (Ry/bohr**3)                   (kbar)     P=      -10.38
  -0.00007622  -0.00002385   0.00000183          -11.21       -3.51        0.27
  -0.00002385  -0.00004875   0.00000105           -3.51       -7.17        0.16
   0.00000183   0.00000105  -0.00008665            0.27        0.16      -12.75

     Energy error            =      4.8E-04 Ry
     Gradient error          =      1.4E-02 Ry/Bohr

     number of scf cycles    =   2
     number of bfgs steps    =   1

     energy             old  =    -520.6311472987 Ry
     energy             new  =    -520.6316238644 Ry

     CASE: energy            _new < energy            _old


     WARNING: bfgs curvature condition failed, Theta= 0.941
     new trust radius        =       0.0183461604 bohr
     new conv_thr            =       0.0000000477 Ry


ATOMIC_POSITIONS (angstrom)
Ag            1.9495518768        0.5682980427       10.1272330060
Ag            1.8440334714        2.1834290557       12.5422485643
Ag            3.1913221484        1.2861493153       14.9434497920
Ag            1.6392208740        0.3889030883       17.2227149985
Ag            1.5351662801        2.0048819412       19.6051783956
Ag            2.8815116467        1.1070522931       22.0273709168
Li            2.0670566516        2.3123625589       24.0606211062



     Writing config-only to output data dir ./Ag_mp-124_111_bridge_1/Ag_mp-124_111_bridge_1.save/
     NEW-OLD atomic charge density approx. for the potential

     negative rho (up, down):  8.739E-06 0.000E+00

     total cpu time spent up to now is       21.7 secs

     per-process dynamical memory:   187.6 Mb

     Self-consistent Calculation

     iteration #  1     ecut=    55.00 Ry     beta= 0.30
     Davidson diagonalization with overlap
     ethr =  1.00E-06,  avg # of iterations =  4.1

     negative rho (up, down):  8.588E-06 0.000E+00

     total cpu time spent up to now is       22.3 secs

     total energy              =    -520.63200432 Ry
     estimated scf accuracy    <       0.00012987 Ry

     iteration #  2     ecut=    55.00 Ry     beta= 0.30
     Davidson diagonalization with overlap
     ethr =  1.88E-07,  avg # of iterations =  3.6

     negative rho (up, down):  9.126E-06 0.000E+00

     total cpu time spent up to now is       22.8 secs

     total energy              =    -520.63170082 Ry
     estimated scf accuracy    <       0.02127382 Ry

     iteration #  3     ecut=    55.00 Ry     beta= 0.30
     Davidson diagonalization with overlap
     ethr =  1.88E-07,  avg # of iterations =  2.4

     negative rho (up, down):  9.762E-06 0.000E+00

     total cpu time spent up to now is       23.1 secs

     total energy              =    -520.63202617 Ry
     estimated scf accuracy    <       0.00072966 Ry

     iteration #  4     ecut=    55.00 Ry     beta= 0.30
     Davidson diagonalization with overlap
     ethr =  1.88E-07,  avg # of iterations =  1.5

     negative rho (up, down):  1.033E-05 0.000E+00

     total cpu time spent up to now is       23.5 secs

     total energy              =    -520.63204515 Ry
     estimated scf accuracy    <       0.00027446 Ry

     iteration #  5     ecut=    55.00 Ry     beta= 0.30
     Davidson diagonalization with overlap
     ethr =  1.88E-07,  avg # of iterations =  1.2

     negative rho (up, down):  9.414E-06 0.000E+00

     total cpu time spent up to now is       23.8 secs

     total energy              =    -520.63205627 Ry
     estimated scf accuracy    <       0.00003044 Ry

     iteration #  6     ecut=    55.00 Ry     beta= 0.30
     Davidson diagonalization with overlap
     ethr =  4.41E-08,  avg # of iterations =  1.1

     negative rho (up, down):  9.107E-06 0.000E+00

     total cpu time spent up to now is       24.1 secs

     total energy              =    -520.63205777 Ry
     estimated scf accuracy    <       0.00000394 Ry

     iteration #  7     ecut=    55.00 Ry     beta= 0.30
     Davidson diagonalization with overlap
     ethr =  5.71E-09,  avg # of iterations =  1.8

     negative rho (up, down):  8.707E-06 0.000E+00

     total cpu time spent up to now is       24.4 secs

     total energy              =    -520.63205820 Ry
     estimated scf accuracy    <       0.00000020 Ry

     iteration #  8     ecut=    55.00 Ry     beta= 0.30
     Davidson diagonalization with overlap
     ethr =  2.90E-10,  avg # of iterations =  3.4

     negative rho (up, down):  8.412E-06 0.000E+00

     total cpu time spent up to now is       24.9 secs

     total energy              =    -520.63205825 Ry
     estimated scf accuracy    <       0.00000008 Ry

     iteration #  9     ecut=    55.00 Ry     beta= 0.30
     Davidson diagonalization with overlap
     ethr =  1.16E-10,  avg # of iterations =  2.0

     negative rho (up, down):  8.390E-06 0.000E+00

     total cpu time spent up to now is       25.2 secs

     End of self-consistent calculation

          k = 0.0000 0.0000 0.0000 ( 10919 PWs)   bands (ev):

   -42.7800  -3.6275  -3.1646  -2.5917  -2.3685  -2.3028  -2.1905  -1.0217
    -0.8289  -0.8251  -0.8218  -0.8005  -0.7601  -0.7567  -0.7461  -0.7362
    -0.6794  -0.6704  -0.6425  -0.6400  -0.5370  -0.5370  -0.1588   0.0776
     0.1327   0.2024   0.2046   0.2284   0.2399   0.4631   0.4756   0.7154
     0.7237   0.9283   0.9304   1.0338   2.2584   3.5043   3.9684   7.1901
     7.7879   8.1399

          k = 0.0000 0.1444 0.0000 ( 10876 PWs)   bands (ev):

   -42.7767  -3.2164  -2.7714  -2.2190  -2.1124  -2.0213  -1.8847  -1.1639
    -1.0395  -0.9596  -0.8931  -0.8624  -0.8195  -0.7032  -0.6598  -0.6339
    -0.5922  -0.5406  -0.5337  -0.4969  -0.4837  -0.4561  -0.3351  -0.2279
    -0.0147   0.0463   0.0991   0.1480   0.2427   0.2900   0.4624   0.4868
     0.7345   0.9446   0.9514   1.8850   2.9653   4.0583   4.7951   7.5326
     8.1304   8.4394

          k = 0.0000 0.2888 0.0000 ( 10871 PWs)   bands (ev):

   -42.7689  -2.3362  -2.0715  -1.9092  -1.8194  -1.6953  -1.5834  -1.4698
    -1.3671  -1.1957  -1.0741  -0.9353  -0.7890  -0.6489  -0.5996  -0.5648
    -0.4833  -0.3925  -0.3697  -0.2271  -0.1567  -0.0857  -0.0671   0.0391
     0.0835   0.0889   0.2335   0.2495   0.2943   0.4236   0.5384   0.7563
     0.8144   0.9838   1.8238   3.0411   4.1651   5.3712   6.6169   8.5034
     9.1160   9.4230

          k = 0.0000 0.4332 0.0000 ( 10791 PWs)   bands (ev):

   -42.7609  -2.2243  -2.1898  -2.0770  -2.0334  -1.9657  -1.8605  -1.8214
    -1.6853  -1.4346  -1.1060  -0.9144  -0.7732  -0.7012  -0.5813  -0.4765
    -0.2774  -0.1575  -0.0667   0.2233   0.2785   0.5090   0.5372   0.6772
     0.7193   0.7215   0.7977   0.8156   0.8600   0.9067   1.0429   1.5412
     1.8938   2.3546   3.3119   4.4709   5.6755   7.0453   8.2777   8.7978
     9.2654   9.9318

          k = 0.0000-0.5775 0.0000 ( 10736 PWs)   bands (ev):

   -42.7575  -2.3568  -2.3028  -2.2143  -2.1675  -2.0528  -1.9896  -1.9622
    -1.8280  -1.5623  -1.1759  -0.9915  -0.8647  -0.7711  -0.5321  -0.4100
    -0.1871  -0.0798   0.1347   0.2384   0.5145   0.6285   0.7388   0.8908
     0.9543   0.9937   1.0204   1.0215   1.0963   1.1331   1.1814   3.7201
     4.2160   4.5586   4.6986   5.0451   5.3048   5.4989   7.6769   8.1809
     8.6783   8.8878

          k = 0.1251-0.0721 0.0000 ( 10876 PWs)   bands (ev):

   -42.7767  -3.2164  -2.7714  -2.2190  -2.1124  -2.0213  -1.8847  -1.1639
    -1.0395  -0.9596  -0.8931  -0.8624  -0.8195  -0.7032  -0.6598  -0.6339
    -0.5922  -0.5406  -0.5337  -0.4969  -0.4837  -0.4561  -0.3351  -0.2279
    -0.0147   0.0463   0.0991   0.1480   0.2426   0.2900   0.4624   0.4868
     0.7345   0.9446   0.9514   1.8850   2.9653   4.0583   4.7951   7.5326
     8.1304   8.4394

          k = 0.1251 0.0723 0.0000 ( 10875 PWs)   bands (ev):

   -42.7768  -3.2169  -2.7738  -2.2280  -2.1145  -2.0252  -1.8853  -1.1626
    -1.0402  -0.9622  -0.8952  -0.8611  -0.8108  -0.6989  -0.6598  -0.6283
    -0.5925  -0.5352  -0.5300  -0.4965  -0.4848  -0.4535  -0.3358  -0.2083
    -0.0342   0.0520   0.1056   0.1285   0.2444   0.2797   0.4660   0.4781
     0.7286   0.9462   0.9648   1.9141   2.9787   4.0424   4.7915   7.5265
     8.1251   8.4464

          k = 0.1251 0.2167 0.0000 ( 10868 PWs)   bands (ev):

   -42.7713  -2.5092  -2.1642  -1.7237  -1.7147  -1.6402  -1.5166  -1.3296
    -1.2640  -1.2171  -1.1387  -1.0359  -0.9802  -0.8474  -0.8116  -0.6224
    -0.6136  -0.5199  -0.4791  -0.4026  -0.3667  -0.1842  -0.1280  -0.0864
     0.0019   0.0706   0.1909   0.2381   0.3739   0.3848   0.4757   0.6447
     0.8009   0.8694   1.6331   2.7680   3.8255   4.9563   6.0945   8.1847
     8.7810   9.1035

          k = 0.1251 0.3611 0.0000 ( 10820 PWs)   bands (ev):

   -42.7633  -1.9754  -1.8650  -1.8007  -1.7419  -1.6738  -1.6161  -1.5200
    -1.3512  -1.3125  -1.1374  -1.0018  -0.9022  -0.7697  -0.7116  -0.6029
    -0.5289  -0.4977  -0.3098  -0.2538  -0.1702  -0.0502   0.0803   0.1629
     0.2409   0.4426   0.4926   0.7246   0.7595   0.8142   0.9671   1.4060
     1.5204   1.9428   2.9127   4.0942   5.2103   6.5019   7.9750   9.3711
    10.1070  10.4142

          k = 0.1251-0.6496 0.0000 ( 10762 PWs)   bands (ev):

   -42.7576  -2.1636  -2.0919  -2.0202  -1.9312  -1.8582  -1.8079  -1.7237
    -1.5760  -1.4678  -1.2170  -1.0251  -0.8377  -0.7243  -0.6459  -0.5044
    -0.4100  -0.1351  -0.0319   0.0258   0.2680   0.3500   0.4565   0.5388
     0.6285   0.6829   0.7429   0.8364   0.9549   0.9969   1.1362   3.5008
     3.7518   4.1520   4.8015   5.5932   6.4906   7.1359   7.9879   8.2905
     8.7150   9.4025

          k = 0.1251-0.5052 0.0000 ( 10760 PWs)   bands (ev):

   -42.7575  -2.1641  -2.0924  -2.0206  -1.9317  -1.8596  -1.8088  -1.7235
    -1.5776  -1.4709  -1.2227  -1.0258  -0.8361  -0.7211  -0.6514  -0.5053
    -0.4009  -0.1224  -0.0398   0.0296   0.2863   0.3482   0.4553   0.5380
     0.6289   0.6844   0.7426   0.8393   0.9549   0.9963   1.1366   3.4882
     3.7356   4.1324   4.7844   5.5873   6.4890   7.1351   8.0027   8.3932
     8.7370   9.3870

          k = 0.1251-0.3608 0.0000 ( 10818 PWs)   bands (ev):

   -42.7632  -1.9772  -1.8662  -1.8018  -1.7445  -1.6752  -1.6183  -1.5204
    -1.3565  -1.3173  -1.1462  -1.0061  -0.9083  -0.7681  -0.7045  -0.5908
    -0.5284  -0.4618  -0.2940  -0.2380  -0.1661  -0.0498   0.0813   0.1671
     0.2394   0.4456   0.4868   0.7213   0.7600   0.8133   0.9679   1.3860
     1.5096   1.9177   2.8778   4.0511   5.2171   6.5328   7.9791   9.3755
    10.1467  10.3859

          k = 0.1251-0.2164 0.0000 ( 10863 PWs)   bands (ev):

   -42.7712  -2.5086  -2.1614  -1.7229  -1.7019  -1.6338  -1.5123  -1.3285
    -1.2581  -1.2161  -1.1393  -1.0401  -0.9790  -0.8501  -0.8136  -0.6263
    -0.6178  -0.5194  -0.4725  -0.4075  -0.3591  -0.1909  -0.1161  -0.0931
    -0.0078   0.0639   0.1749   0.2566   0.3821   0.3851   0.4754   0.6517
     0.7865   0.8698   1.5992   2.7167   3.8200   4.9859   6.0959   8.1997
     8.8032   9.0734

          k = 0.2502-0.1441 0.0000 ( 10871 PWs)   bands (ev):

   -42.7689  -2.3362  -2.0715  -1.9092  -1.8194  -1.6953  -1.5834  -1.4698
    -1.3671  -1.1957  -1.0741  -0.9353  -0.7890  -0.6489  -0.5996  -0.5648
    -0.4833  -0.3925  -0.3697  -0.2271  -0.1567  -0.0857  -0.0671   0.0391
     0.0835   0.0889   0.2335   0.2495   0.2943   0.4236   0.5384   0.7563
     0.8144   0.9838   1.8238   3.0411   4.1651   5.3712   6.6169   8.5034
     9.1160   9.4230

          k = 0.2502 0.0003 0.0000 ( 10868 PWs)   bands (ev):

   -42.7713  -2.5092  -2.1642  -1.7237  -1.7147  -1.6402  -1.5166  -1.3296
    -1.2640  -1.2171  -1.1387  -1.0359  -0.9802  -0.8474  -0.8116  -0.6224
    -0.6136  -0.5199  -0.4792  -0.4026  -0.3667  -0.1842  -0.1280  -0.0864
     0.0019   0.0706   0.1909   0.2381   0.3739   0.3848   0.4757   0.6447
     0.8009   0.8694   1.6331   2.7680   3.8255   4.9563   6.0945   8.1847
     8.7810   9.1034

          k = 0.2502 0.1447 0.0000 ( 10860 PWs)   bands (ev):

   -42.7690  -2.3375  -2.0766  -1.9181  -1.8416  -1.7022  -1.6013  -1.4668
    -1.3694  -1.1892  -1.0716  -0.9259  -0.7733  -0.6438  -0.5957  -0.5713
    -0.4669  -0.3835  -0.3813  -0.2232  -0.1704  -0.0827  -0.0757   0.0381
     0.0867   0.0929   0.2330   0.2540   0.2882   0.4162   0.5337   0.7514
     0.8356   0.9822   1.8735   3.1263   4.1737   5.3303   6.6266   8.4799
     9.0961   9.4472

          k = 0.2502 0.2890 0.0000 ( 10819 PWs)   bands (ev):

   -42.7634  -1.9771  -1.8622  -1.8052  -1.7494  -1.6771  -1.6147  -1.5413
    -1.3606  -1.3095  -1.1421  -1.0008  -0.9030  -0.7717  -0.6989  -0.6085
    -0.5272  -0.4717  -0.3062  -0.2565  -0.1658  -0.0442   0.0791   0.1538
     0.2374   0.4535   0.4865   0.7298   0.7580   0.8135   0.9672   1.3994
     1.5179   1.9487   2.9490   4.1714   5.2175   6.4748   8.0191   9.3558
    10.0720  10.4060

          k = 0.2502-0.7216 0.0000 ( 10755 PWs)   bands (ev):

   -42.7576  -1.8688  -1.8441  -1.7043  -1.6634  -1.5330  -1.4496  -1.3965
    -1.2716  -1.2406  -1.2263  -1.0658  -0.9746  -0.8692  -0.7704  -0.6278
    -0.5525  -0.4688  -0.3676  -0.2687  -0.1169  -0.0491   0.0904   0.1596
     0.2530   0.3337   0.5055   0.8048   0.9772   1.0139   1.1379   3.3903
     3.6139   4.1041   4.9535   5.9640   7.0670   8.2464   8.7283   9.6729
     9.8278   9.9705

          k = 0.2502-0.5773 0.0000 ( 10783 PWs)   bands (ev):

   -42.7553  -1.9291  -1.7181  -1.6966  -1.6149  -1.5486  -1.4959  -1.4391
    -1.3616  -1.2220  -1.1666  -1.1043  -0.9620  -0.8341  -0.8028  -0.5962
    -0.4999  -0.4284  -0.3026  -0.1617  -0.0946  -0.0309   0.1760   0.2895
     0.3454   0.4111   0.6638   0.7793   0.8425   0.9410   0.9836   5.4824
     6.0984   6.1587   6.3097   6.6670   7.1300   7.7167   8.0206   8.3930
     9.0688   9.3925

          k = 0.2502-0.4329 0.0000 ( 10756 PWs)   bands (ev):

   -42.7575  -1.8727  -1.8452  -1.7065  -1.6764  -1.5386  -1.4504  -1.3995
    -1.2758  -1.2462  -1.2263  -1.0673  -0.9584  -0.8708  -0.7481  -0.6103
    -0.5526  -0.4440  -0.3640  -0.2700  -0.1179  -0.0493   0.1060   0.1533
     0.2518   0.3282   0.4990   0.8000   0.9759   1.0149   1.1383   3.3785
     3.5949   4.0595   4.8690   5.8727   7.0707   8.4208   8.9902   9.6013
     9.7649   9.9164

          k = 0.2502-0.2885 0.0000 ( 10818 PWs)   bands (ev):

   -42.7632  -1.9772  -1.8662  -1.8018  -1.7445  -1.6752  -1.6183  -1.5204
    -1.3565  -1.3173  -1.1462  -1.0061  -0.9083  -0.7681  -0.7045  -0.5908
    -0.5284  -0.4618  -0.2940  -0.2380  -0.1661  -0.0498   0.0813   0.1671
     0.2394   0.4456   0.4868   0.7213   0.7600   0.8133   0.9679   1.3860
     1.5096   1.9177   2.8778   4.0511   5.2171   6.5328   7.9791   9.3755
    10.1467  10.3859

          k = 0.3754-0.2162 0.0000 ( 10791 PWs)   bands (ev):

   -42.7609  -2.2243  -2.1898  -2.0770  -2.0334  -1.9657  -1.8605  -1.8214
    -1.6853  -1.4346  -1.1060  -0.9144  -0.7732  -0.7012  -0.5813  -0.4765
    -0.2774  -0.1575  -0.0667   0.2233   0.2785   0.5090   0.5372   0.6772
     0.7193   0.7215   0.7977   0.8156   0.8600   0.9067   1.0429   1.5412
     1.8938   2.3546   3.3119   4.4709   5.6755   7.0453   8.2777   8.7978
     9.2654   9.9318

          k = 0.3754-0.0718 0.0000 ( 10820 PWs)   bands (ev):

   -42.7633  -1.9754  -1.8650  -1.8007  -1.7419  -1.6738  -1.6161  -1.5200
    -1.3512  -1.3125  -1.1374  -1.0018  -0.9022  -0.7697  -0.7116  -0.6029
    -0.5289  -0.4977  -0.3098  -0.2538  -0.1702  -0.0502   0.0803   0.1629
     0.2409   0.4426   0.4926   0.7246   0.7595   0.8142   0.9671   1.4060
     1.5204   1.9428   2.9127   4.0942   5.2103   6.5019   7.9750   9.3711
    10.1070  10.4142

          k = 0.3754 0.0726 0.0000 ( 10819 PWs)   bands (ev):

   -42.7634  -1.9771  -1.8622  -1.8052  -1.7494  -1.6771  -1.6147  -1.5413
    -1.3606  -1.3095  -1.1421  -1.0008  -0.9030  -0.7717  -0.6989  -0.6085
    -0.5272  -0.4717  -0.3062  -0.2565  -0.1658  -0.0442   0.0791   0.1538
     0.2374   0.4535   0.4865   0.7298   0.7580   0.8135   0.9672   1.3994
     1.5179   1.9487   2.9490   4.1714   5.2175   6.4748   8.0191   9.3558
    10.0720  10.4060

          k = 0.3754 0.2170 0.0000 ( 10794 PWs)   bands (ev):

   -42.7611  -2.2287  -2.1893  -2.0806  -2.0483  -1.9692  -1.8875  -1.8154
    -1.6875  -1.4243  -1.1005  -0.9127  -0.7728  -0.7086  -0.5514  -0.4927
    -0.2716  -0.1825  -0.0508   0.2086   0.2913   0.5103   0.5298   0.6829
     0.7202   0.7243   0.7961   0.8158   0.8585   0.9065   1.0417   1.5272
     1.8814   2.3632   3.4074   4.6960   5.7557   6.9650   8.4983   8.8032
     9.1760   9.5956

          k = 0.3754-0.7937 0.0000 ( 10771 PWs)   bands (ev):

   -42.7578  -2.1612  -2.0949  -2.0219  -1.9376  -1.8627  -1.8063  -1.7461
    -1.5773  -1.4608  -1.2168  -1.0257  -0.8550  -0.7240  -0.6331  -0.4968
    -0.4207  -0.1226  -0.0479   0.0344   0.2758   0.3401   0.4668   0.5431
     0.6309   0.6852   0.7431   0.8458   0.9551   0.9975   1.1361   3.4234
     3.7047   4.1625   4.9670   5.9501   6.8262   7.1980   7.6281   8.1099
     8.7246   9.2166

          k = 0.3754-0.6493 0.0000 ( 10768 PWs)   bands (ev):

   -42.7554  -1.9258  -1.7213  -1.6880  -1.6163  -1.5492  -1.4822  -1.4407
    -1.3608  -1.2233  -1.1702  -1.1062  -0.9924  -0.8375  -0.8115  -0.5940
    -0.4992  -0.4257  -0.3051  -0.1637  -0.0947  -0.0290   0.1768   0.2869
     0.3553   0.4230   0.6639   0.7804   0.8429   0.9401   0.9833   5.4377
     6.1387   6.2326   6.5359   6.8086   7.0441   7.6287   7.8911   8.5218
     9.0970   9.3192

          k = 0.3754-0.5049 0.0000 ( 10783 PWs)   bands (ev):

   -42.7553  -1.9291  -1.7181  -1.6966  -1.6149  -1.5486  -1.4959  -1.4391
    -1.3616  -1.2220  -1.1666  -1.1043  -0.9620  -0.8341  -0.8028  -0.5962
    -0.4999  -0.4284  -0.3026  -0.1617  -0.0946  -0.0309   0.1760   0.2895
     0.3454   0.4111   0.6638   0.7793   0.8425   0.9410   0.9836   5.4824
     6.0984   6.1587   6.3097   6.6670   7.1300   7.7167   8.0206   8.3930
     9.0688   9.3925

          k = 0.3754-0.3605 0.0000 ( 10760 PWs)   bands (ev):

   -42.7575  -2.1641  -2.0924  -2.0206  -1.9317  -1.8596  -1.8088  -1.7235
    -1.5776  -1.4709  -1.2227  -1.0258  -0.8361  -0.7211  -0.6514  -0.5053
    -0.4009  -0.1224  -0.0398   0.0296   0.2863   0.3482   0.4553   0.5380
     0.6289   0.6844   0.7426   0.8393   0.9549   0.9963   1.1366   3.4882
     3.7356   4.1324   4.7844   5.5873   6.4890   7.1351   8.0027   8.3932
     8.7370   9.3870

          k =-0.5005 0.2882 0.0000 ( 10736 PWs)   bands (ev):

   -42.7575  -2.3568  -2.3028  -2.2143  -2.1675  -2.0528  -1.9896  -1.9622
    -1.8280  -1.5623  -1.1759  -0.9915  -0.8647  -0.7711  -0.5321  -0.4100
    -0.1871  -0.0798   0.1347   0.2384   0.5145   0.6285   0.7388   0.8908
     0.9543   0.9937   1.0204   1.0215   1.0963   1.1331   1.1814   3.7201
     4.2160   4.5586   4.6986   5.0451   5.3048   5.4989   7.6769   8.1809
     8.6783   8.8878

          k =-0.5005 0.4326 0.0000 ( 10762 PWs)   bands (ev):

   -42.7576  -2.1636  -2.0919  -2.0202  -1.9312  -1.8582  -1.8079  -1.7237
    -1.5760  -1.4678  -1.2170  -1.0251  -0.8377  -0.7243  -0.6459  -0.5044
    -0.4100  -0.1351  -0.0319   0.0258   0.2680   0.3500   0.4565   0.5388
     0.6285   0.6829   0.7429   0.8364   0.9549   0.9969   1.1362   3.5008
     3.7518   4.1520   4.8015   5.5932   6.4906   7.1359   7.9880   8.2905
     8.7150   9.4025

          k =-0.5005 0.5770 0.0000 ( 10755 PWs)   bands (ev):

   -42.7576  -1.8688  -1.8441  -1.7043  -1.6634  -1.5330  -1.4496  -1.3965
[...]

          k = 0.1251-0.3608 0.0000 ( 10818 PWs)   bands (ev):

   -42.8648  -2.0473  -1.9351  -1.8594  -1.7887  -1.7114  -1.6595  -1.5383
    -1.3734  -1.3394  -1.1629  -1.0394  -0.9286  -0.8210  -0.7257  -0.6105
    -0.5420  -0.4646  -0.3039  -0.2489  -0.1798  -0.0589   0.0678   0.1581
     0.2295   0.4366   0.4745   0.7224   0.7402   0.7980   0.9647   1.3814
     1.4898   1.9196   2.8852   4.0389   5.1905   6.5352   7.9719   9.3820
    10.1776  10.4000

          k = 0.1251-0.2164 0.0000 ( 10863 PWs)   bands (ev):

   -42.8727  -2.5863  -2.2091  -1.7794  -1.7425  -1.6697  -1.5401  -1.3603
    -1.2896  -1.2594  -1.1918  -1.0379  -0.9683  -0.8625  -0.8344  -0.6495
    -0.6407  -0.5737  -0.4691  -0.4106  -0.3655  -0.2248  -0.1282  -0.1015
    -0.0299   0.0492   0.1593   0.2489   0.3624   0.3813   0.4583   0.6442
     0.7785   0.8729   1.6085   2.7165   3.7926   4.9630   6.0944   8.2097
     8.8370   9.0915

          k = 0.2502-0.1441 0.0000 ( 10871 PWs)   bands (ev):

   -42.8705  -2.4112  -2.1201  -1.9647  -1.8527  -1.7377  -1.6068  -1.5016
    -1.3949  -1.2268  -1.1098  -0.9526  -0.7780  -0.6620  -0.6391  -0.6107
    -0.4801  -0.4111  -0.3965  -0.2427  -0.1914  -0.1001  -0.0946   0.0245
     0.0709   0.0935   0.2095   0.2423   0.2808   0.4144   0.5288   0.7493
     0.8111   0.9903   1.8321   3.0366   4.1348   5.3577   6.6151   8.5108
     9.1514   9.4377

          k = 0.2502 0.0003 0.0000 ( 10868 PWs)   bands (ev):

   -42.8728  -2.5868  -2.2116  -1.7791  -1.7479  -1.6774  -1.5453  -1.3613
    -1.2945  -1.2585  -1.1911  -1.0374  -0.9683  -0.8604  -0.8324  -0.6486
    -0.6352  -0.5719  -0.4763  -0.4123  -0.3633  -0.2199  -0.1404  -0.0951
    -0.0228   0.0552   0.1791   0.2365   0.3589   0.3745   0.4582   0.6382
     0.7904   0.8732   1.6352   2.7571   3.7907   4.9343   6.0914   8.1926
     8.8143   9.1214

          k = 0.2502 0.1447 0.0000 ( 10860 PWs)   bands (ev):

   -42.8706  -2.4121  -2.1239  -1.9666  -1.8700  -1.7429  -1.6266  -1.4989
    -1.3993  -1.2218  -1.1075  -0.9467  -0.7633  -0.6568  -0.6420  -0.6090
    -0.4657  -0.4221  -0.3825  -0.2393  -0.1982  -0.1024  -0.0977   0.0204
     0.0730   0.0989   0.2097   0.2457   0.2761   0.4081   0.5243   0.7447
     0.8301   0.9892   1.8735   3.1072   4.1311   5.3171   6.6194   8.4798
     9.1296   9.4608

          k = 0.2502 0.2890 0.0000 ( 10819 PWs)   bands (ev):

   -42.8650  -2.0473  -1.9328  -1.8602  -1.7898  -1.7139  -1.6561  -1.5542
    -1.3783  -1.3358  -1.1595  -1.0363  -0.9211  -0.8235  -0.7190  -0.6230
    -0.5411  -0.4683  -0.3121  -0.2643  -0.1820  -0.0541   0.0676   0.1495
     0.2236   0.4427   0.4744   0.7275   0.7415   0.7981   0.9644   1.3889
     1.4986   1.9461   2.9471   4.1406   5.1735   6.4782   8.0016   9.3377
    10.0983  10.4240

          k = 0.2502-0.7216 0.0000 ( 10755 PWs)   bands (ev):

   -42.8593  -1.9390  -1.9160  -1.7610  -1.6961  -1.5829  -1.4948  -1.4340
    -1.3131  -1.2673  -1.2567  -1.1093  -0.9807  -0.8973  -0.7834  -0.6065
    -0.5714  -0.4679  -0.3861  -0.2885  -0.1114  -0.0527   0.0967   0.1635
     0.2311   0.3257   0.5046   0.8095   0.9704   1.0040   1.1276   3.3764
     3.5957   4.0934   4.9314   5.9250   7.0364   8.2593   8.7571   9.6471
     9.7949   9.9280

          k = 0.2502-0.5773 0.0000 ( 10783 PWs)   bands (ev):

   -42.8570  -2.0005  -1.7905  -1.7397  -1.6751  -1.6123  -1.5275  -1.4673
    -1.4052  -1.2657  -1.2048  -1.1327  -0.9556  -0.8441  -0.8028  -0.6113
    -0.5345  -0.4394  -0.2944  -0.1596  -0.1150  -0.0261   0.1659   0.2813
     0.3611   0.4233   0.6458   0.7735   0.8393   0.9396   0.9769   5.5036
     6.0925   6.1112   6.2809   6.6439   7.1135   7.7061   7.9882   8.3886
     9.0554   9.3421

          k = 0.2502-0.4329 0.0000 ( 10756 PWs)   bands (ev):

   -42.8592  -1.9410  -1.9168  -1.7615  -1.7083  -1.5879  -1.4956  -1.4356
    -1.3168  -1.2725  -1.2566  -1.1139  -0.9710  -0.8974  -0.7654  -0.5966
    -0.5719  -0.4473  -0.3801  -0.2893  -0.1100  -0.0536   0.1082   0.1619
     0.2301   0.3204   0.4982   0.8051   0.9694   1.0039   1.1276   3.3717
     3.5800   4.0537   4.8538   5.8504   7.0563   8.4267   8.9819   9.5934
     9.7428   9.8717

          k = 0.2502-0.2885 0.0000 ( 10818 PWs)   bands (ev):

   -42.8648  -2.0473  -1.9351  -1.8594  -1.7887  -1.7114  -1.6595  -1.5383
    -1.3734  -1.3394  -1.1629  -1.0394  -0.9286  -0.8210  -0.7257  -0.6105
    -0.5420  -0.4646  -0.3039  -0.2489  -0.1798  -0.0589   0.0678   0.1581
     0.2295   0.4366   0.4745   0.7224   0.7402   0.7980   0.9647   1.3814
     1.4898   1.9196   2.8852   4.0389   5.1905   6.5352   7.9719   9.3820
    10.1776  10.4000

          k = 0.3754-0.2162 0.0000 ( 10791 PWs)   bands (ev):

   -42.8625  -2.2907  -2.2515  -2.1424  -2.0684  -2.0022  -1.8664  -1.8519
    -1.7110  -1.4496  -1.1089  -0.9237  -0.7798  -0.7751  -0.5880  -0.5147
    -0.3045  -0.1714  -0.0808   0.2091   0.2684   0.5055   0.5228   0.6807
     0.6986   0.7081   0.7774   0.8057   0.8394   0.8838   1.0482   1.5211
     1.8849   2.3544   3.3138   4.4515   5.6517   7.0520   8.2763   8.7913
     9.2428   9.9288

          k = 0.3754-0.0718 0.0000 ( 10820 PWs)   bands (ev):

   -42.8649  -2.0463  -1.9345  -1.8590  -1.7859  -1.7108  -1.6572  -1.5379
    -1.3690  -1.3363  -1.1544  -1.0368  -0.9186  -0.8224  -0.7285  -0.6187
    -0.5449  -0.4906  -0.3186  -0.2636  -0.1837  -0.0598   0.0677   0.1556
     0.2291   0.4336   0.4800   0.7247   0.7413   0.7986   0.9644   1.3928
     1.5019   1.9405   2.9141   4.0733   5.1775   6.5061   7.9674   9.3740
    10.1412  10.4293

          k = 0.3754 0.0726 0.0000 ( 10819 PWs)   bands (ev):

   -42.8650  -2.0473  -1.9328  -1.8602  -1.7898  -1.7139  -1.6561  -1.5542
    -1.3783  -1.3358  -1.1595  -1.0363  -0.9211  -0.8235  -0.7190  -0.6230
    -0.5411  -0.4683  -0.3121  -0.2643  -0.1820  -0.0541   0.0676   0.1495
     0.2236   0.4427   0.4744   0.7275   0.7415   0.7981   0.9644   1.3889
     1.4986   1.9461   2.9471   4.1406   5.1735   6.4782   8.0016   9.3377
    10.0983  10.4240

          k = 0.3754 0.2170 0.0000 ( 10794 PWs)   bands (ev):

   -42.8627  -2.2922  -2.2512  -2.1421  -2.0774  -2.0054  -1.8889  -1.8526
    -1.7148  -1.4404  -1.1009  -0.9200  -0.7787  -0.7787  -0.5695  -0.5279
    -0.2984  -0.1898  -0.0671   0.1974   0.2804   0.5081   0.5150   0.6819
     0.7007   0.7125   0.7766   0.8064   0.8379   0.8834   1.0472   1.5107
     1.8732   2.3627   3.4018   4.6536   5.6933   6.9664   8.4738   8.7907
     9.1100   9.5528

          k = 0.3754-0.7937 0.0000 ( 10771 PWs)   bands (ev):

   -42.8594  -2.2321  -2.1597  -2.0822  -1.9701  -1.8912  -1.8480  -1.7499
    -1.5998  -1.4795  -1.2380  -1.0807  -0.8505  -0.7587  -0.6498  -0.5209
    -0.4289  -0.1409  -0.0576   0.0213   0.2853   0.3275   0.4520   0.5313
     0.6268   0.6775   0.7236   0.8491   0.9408   0.9908   1.1258   3.4260
     3.6833   4.1513   4.9445   5.9010   6.7608   7.1660   7.5832   8.1092
     8.7107   9.1692

          k = 0.3754-0.6493 0.0000 ( 10768 PWs)   bands (ev):

   -42.8571  -1.9986  -1.7919  -1.7330  -1.6765  -1.6125  -1.5203  -1.4635
    -1.4046  -1.2673  -1.2050  -1.1353  -0.9743  -0.8378  -0.8270  -0.6089
    -0.5343  -0.4345  -0.2962  -0.1611  -0.1151  -0.0240   0.1665   0.2792
     0.3615   0.4397   0.6462   0.7742   0.8397   0.9391   0.9768   5.4616
     6.0959   6.1883   6.5101   6.8189   7.0226   7.5879   7.8560   8.4959
     9.0434   9.2805

          k = 0.3754-0.5049 0.0000 ( 10783 PWs)   bands (ev):

   -42.8570  -2.0005  -1.7905  -1.7398  -1.6751  -1.6123  -1.5275  -1.4673
    -1.4052  -1.2657  -1.2048  -1.1327  -0.9556  -0.8441  -0.8028  -0.6113
    -0.5345  -0.4394  -0.2944  -0.1596  -0.1150  -0.0261   0.1659   0.2813
     0.3611   0.4233   0.6458   0.7735   0.8393   0.9396   0.9769   5.5036
     6.0925   6.1112   6.2809   6.6439   7.1135   7.7061   7.9882   8.3886
     9.0554   9.3421

          k = 0.3754-0.3605 0.0000 ( 10760 PWs)   bands (ev):

   -42.8592  -2.2338  -2.1590  -2.0819  -1.9673  -1.8913  -1.8502  -1.7281
    -1.5975  -1.4891  -1.2451  -1.0821  -0.8385  -0.7570  -0.6592  -0.5278
    -0.4144  -0.1415  -0.0513   0.0166   0.2941   0.3340   0.4441   0.5254
     0.6265   0.6753   0.7231   0.8433   0.9409   0.9891   1.1258   3.4721
     3.7239   4.1251   4.7657   5.5686   6.4810   7.1194   7.9982   8.3671
     8.7251   9.3813

          k =-0.5005 0.2882 0.0000 ( 10736 PWs)   bands (ev):

   -42.8592  -2.4225  -2.3681  -2.2794  -2.2002  -2.0890  -2.0034  -1.9830
    -1.8535  -1.5745  -1.1786  -1.0078  -0.8688  -0.8459  -0.5695  -0.3977
    -0.1989  -0.1081   0.1258   0.2290   0.5034   0.6210   0.7436   0.8840
     0.9610   0.9821   0.9891   1.0131   1.0756   1.1120   1.1640   3.6874
     4.2012   4.5627   4.6839   5.0282   5.2872   5.4819   7.6844   8.1717
     8.6500   8.8794

          k =-0.5005 0.4326 0.0000 ( 10762 PWs)   bands (ev):

   -42.8593  -2.2335  -2.1587  -2.0818  -1.9670  -1.8898  -1.8496  -1.7283
    -1.5960  -1.4863  -1.2397  -1.0809  -0.8369  -0.7600  -0.6579  -0.5273
    -0.4216  -0.1501  -0.0461   0.0133   0.2774   0.3363   0.4451   0.5269
     0.6267   0.6736   0.7233   0.8411   0.9409   0.9901   1.1259   3.4789
     3.7375   4.1419   4.7809   5.5736   6.4814   7.1198   7.9819   8.2740
     8.7076   9.3998

          k =-0.5005 0.5770 0.0000 ( 10755 PWs)   bands (ev):

   -42.8593  -1.9390  -1.9160  -1.7610  -1.6961  -1.5829  -1.4948  -1.4340
    -1.3131  -1.2673  -1.2567  -1.1093  -0.9807  -0.8973  -0.7834  -0.6065
    -0.5714  -0.4679  -0.3861  -0.2885  -0.1114  -0.0527   0.0967   0.1635
     0.2311   0.3257   0.5046   0.8095   0.9704   1.0040   1.1276   3.3764
     3.5957   4.0934   4.9314   5.9250   7.0364   8.2593   8.7571   9.6471
     9.7949   9.9280

          k =-0.5005 0.7214 0.0000 ( 10771 PWs)   bands (ev):

   -42.8594  -2.2321  -2.1597  -2.0822  -1.9701  -1.8912  -1.8480  -1.7499
    -1.5998  -1.4795  -1.2380  -1.0807  -0.8505  -0.7587  -0.6498  -0.5209
    -0.4289  -0.1409  -0.0576   0.0212   0.2853   0.3275   0.4520   0.5313
     0.6268   0.6775   0.7236   0.8491   0.9408   0.9908   1.1258   3.4260
     3.6833   4.1513   4.9445   5.9010   6.7608   7.1660   7.5832   8.1092
     8.7107   9.1692

          k =-0.5005-0.2893 0.0000 ( 10756 PWs)   bands (ev):

   -42.8595  -2.4231  -2.3680  -2.2791  -2.2092  -2.0874  -2.0155  -1.9980
    -1.8558  -1.5651  -1.1685  -1.0075  -0.8678  -0.8494  -0.5829  -0.3669
    -0.2179  -0.1017   0.1452   0.2158   0.5132   0.6131   0.7484   0.8825
     0.9607   0.9839   0.9924   1.0173   1.0749   1.1118   1.1636   3.5187
     3.9803   4.5323   4.9546   5.2508   5.4753   6.5427   6.9759   7.7501
     8.3090   8.8718

     the Fermi energy is     3.9034 ev

!    total energy              =    -520.63352653 Ry
     estimated scf accuracy    <          2.2E-09 Ry
     smearing contrib. (-TS)   =      -0.00177542 Ry
     internal energy E=F+TS    =    -520.63175111 Ry

     The total energy is F=E-TS. E is the sum of the following terms:
     one-electron contribution =   -6717.51663886 Ry
     hartree contribution      =    3410.11678479 Ry
     xc contribution           =    -137.64785169 Ry
     ewald contribution        =    2924.61000708 Ry
     DFT-D3 Dispersion         =      -0.19405243 Ry

     convergence has been achieved in   8 iterations

     negative rho (up, down):  9.371E-06 0.000E+00

     Forces acting on atoms (cartesian axes, Ry/au):

     atom    1 type  2   force =    -0.00001614   -0.00000948    0.00017709
     atom    2 type  2   force =    -0.00002634   -0.00001504   -0.00020353
     atom    3 type  2   force =    -0.00004787   -0.00002765    0.00045209
     atom    4 type  2   force =    -0.00007725   -0.00004479    0.00099240
     atom    5 type  2   force =    -0.00008153   -0.00004726   -0.00061396
     atom    6 type  2   force =    -0.00030416   -0.00017572   -0.00018833
     atom    7 type  1   force =     0.00055329    0.00031995   -0.00061576
     The non-local contrib.  to forces
     atom    1 type  2   force =     0.00259304    0.00149891   -0.06158884
     atom    2 type  2   force =     0.00177146    0.00102410   -0.03854512
     atom    3 type  2   force =    -0.00064087   -0.00037034    0.00363394
     atom    4 type  2   force =    -0.00049792   -0.00028792    0.00121000
     atom    5 type  2   force =     0.00179460    0.00103710    0.00962376
     atom    6 type  2   force =    -0.00054800   -0.00031745    0.01625324
     atom    7 type  1   force =    -0.00169154   -0.00097574    0.04721016
     The ionic contribution  to forces
     atom    1 type  2   force =     7.19427693    4.15890983 -164.52117716
     atom    2 type  2   force =     4.48659854    2.59364796 -102.65000019
     atom    3 type  2   force =     1.72153668    0.99519494  -39.31618906
     atom    4 type  2   force =    -1.04044179   -0.60146790   23.80067282
     atom    5 type  2   force =    -3.79966468   -2.19653205   86.75769695
     atom    6 type  2   force =    -6.50077985   -3.75800846  148.69031549
     atom    7 type  1   force =    -2.06152583   -1.19174434   47.23868115
     The local contribution  to forces
     atom    1 type  2   force =    -7.19640727   -4.16014141  164.57207931
     atom    2 type  2   force =    -4.48820421   -2.59457593  102.68358135
     atom    3 type  2   force =    -1.72090794   -0.99483147   39.31276767
     atom    4 type  2   force =     1.04085072    0.60170415  -23.80053284
     atom    5 type  2   force =     3.79758081    2.19532760  -86.76495856
     atom    6 type  2   force =     6.50097064    3.75811959 -148.70394555
     atom    7 type  1   force =     2.06363849    1.19296362  -47.28428412
     The core correction contribution to forces
     atom    1 type  2   force =    -0.00024963   -0.00014429    0.00564751
     atom    2 type  2   force =    -0.00002109   -0.00001222    0.00072044
     atom    3 type  2   force =    -0.00000754   -0.00000434   -0.00021820
     atom    4 type  2   force =    -0.00000033   -0.00000018   -0.00003747
     atom    5 type  2   force =     0.00007484    0.00004326   -0.00058593
     atom    6 type  2   force =    -0.00009247   -0.00005348    0.00199587
     atom    7 type  1   force =     0.00000000    0.00000000    0.00000000
     The Hubbard contrib.    to forces
     atom    1 type  2   force =     0.00000000    0.00000000    0.00000000
     atom    2 type  2   force =     0.00000000    0.00000000    0.00000000
     atom    3 type  2   force =     0.00000000    0.00000000    0.00000000
     atom    4 type  2   force =     0.00000000    0.00000000    0.00000000
     atom    5 type  2   force =     0.00000000    0.00000000    0.00000000
     atom    6 type  2   force =     0.00000000    0.00000000    0.00000000
     atom    7 type  1   force =     0.00000000    0.00000000    0.00000000
     The SCF correction term to forces
     atom    1 type  2   force =    -0.00000273   -0.00000158    0.00005975
     atom    2 type  2   force =    -0.00000070   -0.00000043    0.00000137
     atom    3 type  2   force =    -0.00000100   -0.00000069   -0.00000603
     atom    4 type  2   force =    -0.00000116   -0.00000059    0.00000507
     atom    5 type  2   force =     0.00000085    0.00000052   -0.00007136
     atom    6 type  2   force =    -0.00001289   -0.00000747   -0.00001339
     atom    7 type  1   force =     0.00000985    0.00000571    0.00001973

     DFT-D3 dispersion contribution to forces:
     atom    1 type  2   force =    -0.00022677   -0.00013108    0.00515963
     atom    2 type  2   force =    -0.00017062   -0.00009866    0.00404172
     atom    3 type  2   force =    -0.00002749   -0.00001589    0.00046689
     atom    4 type  2   force =     0.00001295    0.00000750   -0.00032208
     atom    5 type  2   force =     0.00013176    0.00007616   -0.00231570
     atom    6 type  2   force =     0.00015814    0.00009141   -0.00479088
     atom    7 type  1   force =     0.00012203    0.00007056   -0.00223957

     Total force =     0.001615     Total SCF correction =     0.000098


     Computing stress (Cartesian axis) and pressure


     negative rho (up, down):  9.371E-06 0.000E+00
          total   stress  (Ry/bohr**3)                   (kbar)     P=       -9.31
  -0.00006567  -0.00001544   0.00000271           -9.66       -2.27        0.40
  -0.00001544  -0.00004789   0.00000156           -2.27       -7.05        0.23
   0.00000271   0.00000156  -0.00007638            0.40        0.23      -11.24

     Energy error            =      4.2E-06 Ry
     Gradient error          =      9.9E-04 Ry/Bohr

     bfgs converged in  17 scf cycles and  16 bfgs steps
     (criteria: energy <  1.0E-04 Ry, force <  1.0E-03 Ry/Bohr)

     End of BFGS Geometry Optimization

     Final energy             =    -520.6335265265 Ry

     File ./Ag_mp-124_111_bridge_1/Ag_mp-124_111_bridge_1.bfgs deleted, as requested
Begin final coordinates

ATOMIC_POSITIONS (angstrom)
Ag            1.9470722009        0.5668601176       10.1749474435
Ag            1.8423004334        2.1824192622       12.5820024121
Ag            3.1890493457        1.2848328218       14.9392182216
Ag            1.6394921368        0.3890599976       17.1831264742
Ag            1.5371649273        2.0060370011       19.5587879125
Ag            2.8762167029        1.1039970039       21.9683834891
Li            2.0765672019        2.3178700911       24.1223508264
End final coordinates



     Writing all to output data dir ./Ag_mp-124_111_bridge_1/Ag_mp-124_111_bridge_1.save/

     init_run     :      6.23s CPU      6.67s WALL (       1 calls)
     electrons    :     60.25s CPU     68.21s WALL (      17 calls)
     update_pot   :      8.09s CPU      8.61s WALL (      16 calls)
     forces       :      6.12s CPU      6.58s WALL (      17 calls)
     force_dftd3  :      0.11s CPU      0.21s WALL (      17 calls)
     stress       :     18.71s CPU     19.15s WALL (      17 calls)
     stres_dftd3  :      0.07s CPU      0.11s WALL (      17 calls)

     Called by init_run:
     wfcinit      :      0.41s CPU      0.61s WALL (       1 calls)
     potinit      :      1.97s CPU      2.00s WALL (       1 calls)
     hinit0       :      3.78s CPU      3.96s WALL (       1 calls)

     Called by electrons:
     c_bands      :     49.12s CPU     53.79s WALL (     159 calls)
     sum_band     :      7.75s CPU      8.70s WALL (     159 calls)
     v_of_rho     :      1.58s CPU      2.16s WALL (     165 calls)
     newd         :      1.32s CPU      1.37s WALL (     165 calls)
     mix_rho      :      0.20s CPU      0.21s WALL (     159 calls)
     energy_dftd3 :      0.04s CPU      0.04s WALL (      17 calls)

     Called by c_bands:
     init_us_2    :      0.40s CPU      0.44s WALL (    3177 calls)
     init_us_2:cp :      0.40s CPU      0.44s WALL (    3177 calls)
     cegterg      :     45.04s CPU     48.04s WALL (    1431 calls)

     Called by *egterg:
     cdiaghg      :     11.02s CPU     11.14s WALL (    5104 calls)
     h_psi        :     26.90s CPU     29.39s WALL (    5356 calls)
     s_psi        :      1.26s CPU      1.30s WALL (    5356 calls)
     g_psi        :      0.11s CPU      0.11s WALL (    3916 calls)

     Called by h_psi:
     h_psi:calbec :      2.25s CPU      2.68s WALL (    5356 calls)
     vloc_psi     :     23.35s CPU     25.32s WALL (    5356 calls)
     add_vuspsi   :      1.20s CPU      1.30s WALL (    5356 calls)

     General routines
     calbec       :      4.21s CPU      4.79s WALL (    7552 calls)
     fft          :      5.76s CPU      6.89s WALL (    2563 calls)
     ffts         :      1.83s CPU      2.19s WALL (     324 calls)
     fftw         :     24.60s CPU     26.63s WALL (  358738 calls)
     interpolate  :      1.86s CPU      2.03s WALL (     165 calls)

     Parallel routines

     PWSCF        :   1m40.00s CPU   1m50.86s WALL


   This run was terminated on:   5:28:57  24Jul2025            

=------------------------------------------------------------------------------=
   JOB DONE.
=------------------------------------------------------------------------------=
