
     Program PWSCF v.7.2 starts on 24Jul2025 at  5:16:33 

     This program is part of the open-source Quantum ESPRESSO suite
     for quantum simulation of materials; please cite
         "P. Giannozzi et al., J. Phys.:Condens. Matter 21 395502 (2009);
         "P. Giannozzi et al., J. Phys.:Condens. Matter 29 465901 (2017);
         "P. Giannozzi et al., J. Chem. Phys. 152 154105 (2020);
          URL http://www.quantum-espresso.org", 
     in publications or presentations arising from this work. More details at
     http://www.quantum-espresso.org/quote

     Parallel version (MPI & OpenMP), running on     128 processor cores
     Number of MPI processes:               128
     Threads/MPI process:                     1

     MPI processes distributed on     2 nodes
     237278 MiB available memory on the printing compute node when the environment starts

     Reading input from Ag_mp-124_110_ontop_0.in

     Current dimensions of program PWSCF are:
     Max number of different atomic species (ntypx) = 10
     Max number of k-points (npk) =  40000
     Max angular momentum in pseudopotentials (lmaxx) =  4
     Message from routine iosys:
     restart disabled: needed files not found

     K-points division:     npool     =       4
     R & G space division:  proc/nbgrp/npool/nimage =      32
     Subspace diagonalization in iterative solution of the eigenvalue problem:
     a serial algorithm will be used


     Parallelization info
     --------------------
     sticks:   dense  smooth     PW     G-vecs:    dense   smooth      PW
     Min          52      23      7                12906     3761     603
     Max          53      24      8                12949     3784     633
     Sum        1693     741    227               413923   120671   19731

     Using Slab Decomposition



     bravais-lattice index     =            0
     lattice parameter (alat)  =       5.4844  a.u.
     unit-cell volume          =    2190.9204 (a.u.)^3
     number of atoms/cell      =            7
     number of atomic types    =            2
     number of electrons       =        69.00
     number of Kohn-Sham states=           42
     kinetic-energy cutoff     =      55.0000  Ry
     charge density cutoff     =     500.0000  Ry
     scf convergence threshold =      1.0E-06
     mixing beta               =       0.3000
     number of iterations used =            8  plain     mixing
     energy convergence thresh.=      1.0E-04
     force convergence thresh. =      1.0E-03
     Exchange-correlation= PBE
                           (   1   4   3   4   0   0   0)
     nstep                     =          500


     celldm(1)=   5.484398  celldm(2)=   0.000000  celldm(3)=   0.000000
     celldm(4)=   0.000000  celldm(5)=   0.000000  celldm(6)=   0.000000

     crystal axes: (cart. coord. in units of alat)
               a(1) = (   1.000000   0.000000   0.000000 )  
               a(2) = (   0.000000   1.414214   0.000000 )  
               a(3) = (   0.000000   0.000000   9.391281 )  

     reciprocal axes: (cart. coord. in units 2 pi/alat)
               b(1) = (  1.000000 -0.000000  0.000000 )  
               b(2) = (  0.000000  0.707107  0.000000 )  
               b(3) = ( -0.000000 -0.000000  0.106482 )  


     PseudoPot. # 1 for Li read from file:
     /home/ecastro/trabajo_final/pseudos/Li.pbe-s-rrkjus_psl.1.0.0.UPF
     MD5 check sum: 9f98d2529904d60b716d33989e9bc179
     Pseudo is Ultrasoft, Zval =  3.0
     Generated using &quot;atomic&quot; code by A. Dal Corso  v.6.3MaX
     Using radial grid of 1017 points,  4 beta functions with: 
                l(1) =   0
                l(2) =   0
                l(3) =   1
                l(4) =   1
     Q(r) pseudized with 0 coefficients 


     PseudoPot. # 2 for Ag read from file:
     /home/ecastro/trabajo_final/pseudos/Ag.pbe-n-rrkjus_psl.1.0.0.UPF
     MD5 check sum: 81cdf87bacf708300839c66ee23ce017
     Pseudo is Ultrasoft + core correction, Zval = 11.0
     Generated using &quot;atomic&quot; code by A. Dal Corso  v.6.2.2
     Using radial grid of 1237 points,  6 beta functions with: 
                l(1) =   0
                l(2) =   0
                l(3) =   1
                l(4) =   1
                l(5) =   2
                l(6) =   2
     Q(r) pseudized with 0 coefficients 


     atomic species   valence    mass     pseudopotential
        Li             3.00     6.94100     Li( 1.00)
        Ag            11.00   107.86820     Ag( 1.00)

     No symmetry found



   Cartesian axes

     site n.     atom                  positions (alat units)
         1           Ag  tau(   1) = (   0.7499986   1.0606605   5.4610461  )
         2           Ag  tau(   2) = (   0.2499984   0.3535538   5.9308985  )
         3           Ag  tau(   3) = (   0.7500000   1.0606602   4.4456403  )
         4           Ag  tau(   4) = (   0.2500000   0.3535534   4.9456403  )
         5           Ag  tau(   5) = (   0.7500000   1.0606602   3.4456403  )
         6           Ag  tau(   6) = (   0.2500000   0.3535534   3.9456403  )
         7           Li  tau(   7) = (   0.2499984   0.3535538   6.6200266  )

     --------------------------------------------
     DFT-D3 Dispersion Correction (no 3-body):
     --------------------------------------------
       Reference C6 values for interpolation: 

         atom   Coordination number   C6
         Li         0.000          2326.89
         Li         0.987           170.64
         Ag         0.000           853.49
         Ag         0.968           537.23

       Values used:

         atom   Coordination number  R0_AB[au]  C6      C8
         Ag         8.050            3.147    537.23  47741.54
         Ag         6.652            3.147    537.23  47741.54
         Ag         8.648            3.147    537.23  47741.54
         Ag         8.653            3.147    537.23  47741.54
         Ag         5.094            3.147    537.23  47741.54
         Ag         7.952            3.147    537.23  47741.54
         Li         3.138            3.303    170.64  12899.87

         Molecular C6 ( Ry / a.u.^6 ) =     22982.53


     number of k points=    34  Methfessel-Paxton smearing, width (Ry)=  0.0300
                       cart. coord. in units 2pi/alat
        k(    1) = (   0.0000000   0.0000000   0.0000000), wk =   0.0312500
        k(    2) = (   0.0000000   0.0883883   0.0000000), wk =   0.0625000
        k(    3) = (   0.0000000   0.1767767   0.0000000), wk =   0.0625000
        k(    4) = (   0.0000000   0.2651650   0.0000000), wk =   0.0625000
        k(    5) = (   0.0000000  -0.3535534   0.0000000), wk =   0.0312500
        k(    6) = (   0.1250000  -0.0000000   0.0000000), wk =   0.0625000
        k(    7) = (   0.1250000   0.0883883   0.0000000), wk =   0.0625000
        k(    8) = (   0.1250000   0.1767767   0.0000000), wk =   0.0625000
        k(    9) = (   0.1250000   0.2651650   0.0000000), wk =   0.0625000
        k(   10) = (   0.1250000  -0.3535534   0.0000000), wk =   0.0625000
        k(   11) = (   0.1250000  -0.2651650   0.0000000), wk =   0.0625000
        k(   12) = (   0.1250000  -0.1767767   0.0000000), wk =   0.0625000
        k(   13) = (   0.1250000  -0.0883883   0.0000000), wk =   0.0625000
        k(   14) = (   0.2500000  -0.0000000   0.0000000), wk =   0.0625000
        k(   15) = (   0.2500000   0.0883883   0.0000000), wk =   0.0625000
        k(   16) = (   0.2500000   0.1767767   0.0000000), wk =   0.0625000
        k(   17) = (   0.2500000   0.2651650   0.0000000), wk =   0.0625000
        k(   18) = (   0.2500000  -0.3535534   0.0000000), wk =   0.0625000
        k(   19) = (   0.2500000  -0.2651650   0.0000000), wk =   0.0625000
        k(   20) = (   0.2500000  -0.1767767   0.0000000), wk =   0.0625000
        k(   21) = (   0.2500000  -0.0883883   0.0000000), wk =   0.0625000
        k(   22) = (   0.3750000  -0.0000000   0.0000000), wk =   0.0625000
        k(   23) = (   0.3750000   0.0883883   0.0000000), wk =   0.0625000
        k(   24) = (   0.3750000   0.1767767   0.0000000), wk =   0.0625000
        k(   25) = (   0.3750000   0.2651650   0.0000000), wk =   0.0625000
        k(   26) = (   0.3750000  -0.3535534   0.0000000), wk =   0.0625000
        k(   27) = (   0.3750000  -0.2651650   0.0000000), wk =   0.0625000
        k(   28) = (   0.3750000  -0.1767767   0.0000000), wk =   0.0625000
        k(   29) = (   0.3750000  -0.0883883   0.0000000), wk =   0.0625000
        k(   30) = (  -0.5000000   0.0000000   0.0000000), wk =   0.0312500
        k(   31) = (  -0.5000000   0.0883883   0.0000000), wk =   0.0625000
        k(   32) = (  -0.5000000   0.1767767   0.0000000), wk =   0.0625000
        k(   33) = (  -0.5000000   0.2651650   0.0000000), wk =   0.0625000
        k(   34) = (  -0.5000000  -0.3535534   0.0000000), wk =   0.0312500

     Dense  grid:   413923 G-vectors     FFT dimensions: (  40,  60, 375)

     Smooth grid:   120671 G-vectors     FFT dimensions: (  25,  40, 243)

     Estimated max dynamical RAM per process >      25.22 MB

     Estimated total dynamical RAM >       2.86 GB
     Cannot read rho : file not found

     Initial potential from superposition of free atoms

     starting charge      68.9930, renormalised to      69.0000

     negative rho (up, down):  4.560E-05 0.000E+00
     Message from routine qexsd_readschema :
     xml data file ./Ag_mp-124_110_ontop_0/Ag_mp-124_110_ontop_0.save/data-file-schem
     Cannot read wfcs: file not found
     Starting wfcs are   59 randomized atomic wfcs

     total cpu time spent up to now is        5.9 secs

     per-process dynamical memory:   177.2 Mb

     Self-consistent Calculation

     iteration #  1     ecut=    55.00 Ry     beta= 0.30
     Davidson diagonalization with overlap
     c_bands:  2 eigenvalues not converged
     c_bands:  1 eigenvalues not converged
     c_bands:  1 eigenvalues not converged
     c_bands:  1 eigenvalues not converged
     c_bands:  1 eigenvalues not converged
     c_bands:  1 eigenvalues not converged
     ethr =  1.00E-05,  avg # of iterations = 18.5

     negative rho (up, down):  3.720E-05 0.000E+00

     total cpu time spent up to now is       10.9 secs

     total energy              =    -520.43245518 Ry
     estimated scf accuracy    <       0.26812283 Ry

     iteration #  2     ecut=    55.00 Ry     beta= 0.30
     Davidson diagonalization with overlap
     ethr =  3.89E-04,  avg # of iterations =  7.5

     negative rho (up, down):  4.123E-05 0.000E+00

     total cpu time spent up to now is       12.4 secs

     total energy              =    -520.38140551 Ry
     estimated scf accuracy    <       1.20747113 Ry

     iteration #  3     ecut=    55.00 Ry     beta= 0.30
     Davidson diagonalization with overlap
     ethr =  3.89E-04,  avg # of iterations =  4.1

     negative rho (up, down):  4.482E-05 0.000E+00

     total cpu time spent up to now is       13.5 secs

     total energy              =    -520.48028918 Ry
     estimated scf accuracy    <       0.32852591 Ry

     iteration #  4     ecut=    55.00 Ry     beta= 0.30
     Davidson diagonalization with overlap
     ethr =  3.89E-04,  avg # of iterations =  1.9

     negative rho (up, down):  2.377E-05 0.000E+00

     total cpu time spent up to now is       14.3 secs

     total energy              =    -520.48805665 Ry
     estimated scf accuracy    <       0.24226999 Ry

     iteration #  5     ecut=    55.00 Ry     beta= 0.30
     Davidson diagonalization with overlap
     ethr =  3.51E-04,  avg # of iterations =  1.1

     negative rho (up, down):  1.109E-05 0.000E+00

     total cpu time spent up to now is       14.9 secs

     total energy              =    -520.49815125 Ry
     estimated scf accuracy    <       0.00179130 Ry

     iteration #  6     ecut=    55.00 Ry     beta= 0.30
     Davidson diagonalization with overlap
     ethr =  2.60E-06,  avg # of iterations =  9.1

     negative rho (up, down):  1.476E-05 0.000E+00

     total cpu time spent up to now is       15.9 secs

     total energy              =    -520.49849519 Ry
     estimated scf accuracy    <       0.00054963 Ry

     iteration #  7     ecut=    55.00 Ry     beta= 0.30
     Davidson diagonalization with overlap
     ethr =  7.97E-07,  avg # of iterations =  1.4

     negative rho (up, down):  1.974E-05 0.000E+00

     total cpu time spent up to now is       16.5 secs

     total energy              =    -520.49854760 Ry
     estimated scf accuracy    <       0.00021185 Ry

     iteration #  8     ecut=    55.00 Ry     beta= 0.30
     Davidson diagonalization with overlap
     ethr =  3.07E-07,  avg # of iterations =  1.5

     negative rho (up, down):  2.250E-05 0.000E+00

     total cpu time spent up to now is       17.2 secs

     total energy              =    -520.49857297 Ry
     estimated scf accuracy    <       0.00003873 Ry

     iteration #  9     ecut=    55.00 Ry     beta= 0.30
     Davidson diagonalization with overlap
     ethr =  5.61E-08,  avg # of iterations =  2.2

     negative rho (up, down):  1.828E-05 0.000E+00

     total cpu time spent up to now is       17.8 secs

     total energy              =    -520.49857447 Ry
     estimated scf accuracy    <       0.00001690 Ry

     iteration # 10     ecut=    55.00 Ry     beta= 0.30
     Davidson diagonalization with overlap
     ethr =  2.45E-08,  avg # of iterations =  1.9

     negative rho (up, down):  1.526E-05 0.000E+00

     total cpu time spent up to now is       18.3 secs

     total energy              =    -520.49857640 Ry
     estimated scf accuracy    <       0.00000235 Ry

     iteration # 11     ecut=    55.00 Ry     beta= 0.30
     Davidson diagonalization with overlap
     ethr =  3.40E-09,  avg # of iterations =  4.0

     negative rho (up, down):  1.137E-05 0.000E+00

     total cpu time spent up to now is       18.8 secs

     End of self-consistent calculation

          k = 0.0000 0.0000 0.0000 ( 15163 PWs)   bands (ev):

   -45.6888  -5.3095  -4.3184  -4.1884  -4.0020  -3.8848  -3.5035  -3.4685
    -3.2404  -3.1829  -3.0053  -2.8823  -2.7879  -2.6672  -2.6143  -2.6016
    -2.5260  -2.4012  -2.3406  -2.2784  -2.0038  -1.9336  -1.9313  -1.9303
    -1.8360  -1.7543  -1.5995  -1.4479  -1.4200  -1.1277  -1.1161  -1.0391
    -0.8199  -0.7730   0.6871   1.7605   3.4304   4.2209   4.8743   5.6155
     5.7434   5.7943

          k = 0.0000 0.0884 0.0000 ( 15115 PWs)   bands (ev):

   -45.6887  -5.1642  -4.2724  -4.1474  -3.9621  -3.8768  -3.6497  -3.5047
    -3.3063  -3.1398  -2.8931  -2.8118  -2.7603  -2.6494  -2.6195  -2.5099
    -2.4998  -2.3979  -2.2860  -2.2159  -2.1682  -1.9554  -1.9500  -1.8225
    -1.7754  -1.6662  -1.6144  -1.5535  -1.2587  -1.2103  -1.1897  -0.9798
    -0.8703  -0.7489   0.7747   1.8725   3.2333   3.5201   4.6820   5.0105
     5.6923   5.8738

          k = 0.0000 0.1768 0.0000 ( 15114 PWs)   bands (ev):

   -45.6887  -4.7625  -4.2187  -4.0255  -3.9218  -3.8671  -3.8187  -3.5136
    -3.2181  -3.1195  -2.8899  -2.6995  -2.6818  -2.6744  -2.5337  -2.5332
    -2.4240  -2.3782  -2.2587  -2.2197  -2.0453  -2.0357  -1.8212  -1.7256
    -1.6998  -1.5844  -1.5705  -1.4439  -1.3769  -1.2395  -1.1329  -0.9827
    -0.9271  -0.5975   1.0514   1.4774   2.2753   2.9231   3.6849   4.3908
     5.2911   5.6821

          k = 0.0000 0.2652 0.0000 ( 15152 PWs)   bands (ev):

   -45.6888  -4.2883  -4.2192  -4.0657  -3.8727  -3.8611  -3.6309  -3.4703
    -3.1620  -3.0181  -2.8316  -2.7431  -2.7279  -2.6901  -2.5813  -2.4777
    -2.4427  -2.3145  -2.2996  -2.1459  -2.0573  -1.9715  -1.7818  -1.7017
    -1.5167  -1.4949  -1.3866  -1.3550  -1.2506  -1.1639  -1.1132  -0.9920
    -0.9392  -0.0742  -0.0278   1.1706   1.6922   2.6049   2.9096   3.6777
     4.3701   6.0197

          k = 0.0000-0.3536 0.0000 ( 15118 PWs)   bands (ev):

   -45.6887  -4.2674  -4.1613  -3.9424  -3.9142  -3.7753  -3.5385  -3.3884
    -3.1936  -2.9087  -2.8089  -2.7693  -2.7626  -2.6960  -2.6224  -2.4566
    -2.4179  -2.3292  -2.2864  -2.1397  -2.0993  -2.0132  -1.8241  -1.5769
    -1.4445  -1.3525  -1.2801  -1.2313  -1.1610  -1.1410  -1.1018  -0.9912
    -0.9477  -0.2915  -0.2701   1.0958   1.3661   2.1241   3.1211   3.5964
     3.6431   6.4745

          k = 0.1250-0.0000 0.0000 ( 15077 PWs)   bands (ev):

   -45.6871  -5.0059  -4.1294  -3.9694  -3.8671  -3.6929  -3.4399  -3.3582
    -3.2250  -3.2075  -3.1714  -2.9972  -2.8619  -2.7585  -2.7260  -2.5787
    -2.5694  -2.4573  -2.3949  -2.3170  -2.0617  -1.9177  -1.8048  -1.7784
    -1.7530  -1.6312  -1.5250  -1.4876  -1.3801  -1.2772  -1.2410  -0.9933
    -0.8576  -0.6230   0.9348   2.0360   3.7422   4.8965   5.1494   5.9043
     6.0230   6.2344

          k = 0.1250 0.0884 0.0000 ( 15111 PWs)   bands (ev):

   -45.6872  -4.8698  -4.0759  -3.9269  -3.8400  -3.6676  -3.5342  -3.4190
    -3.2760  -3.1843  -3.0551  -2.9029  -2.8007  -2.7382  -2.6875  -2.5298
    -2.4964  -2.4689  -2.4055  -2.3097  -2.1507  -2.0339  -1.8488  -1.8066
    -1.6995  -1.6434  -1.5554  -1.5053  -1.2859  -1.2396  -1.1832  -1.0296
    -0.9318  -0.5263   1.0538   2.1628   3.8187   3.8680   5.0735   5.2962
     6.0117   6.1567

          k = 0.1250 0.1768 0.0000 ( 15135 PWs)   bands (ev):

   -45.6873  -4.4976  -4.0148  -3.7877  -3.7659  -3.7340  -3.6203  -3.3720
    -3.2133  -3.1400  -2.9682  -2.8141  -2.7607  -2.6910  -2.5840  -2.4833
    -2.4359  -2.3926  -2.3686  -2.2867  -2.2180  -2.0634  -1.9631  -1.9358
    -1.7478  -1.6796  -1.5477  -1.4134  -1.2457  -1.1911  -1.1704  -1.0423
    -1.0329  -0.1457   1.4120   2.0386   2.6172   3.3104   4.0970   4.7151
     5.6005   5.9456

          k = 0.1250 0.2652 0.0000 ( 15153 PWs)   bands (ev):

   -45.6873  -4.0839  -4.0081  -3.8584  -3.6213  -3.6059  -3.5578  -3.3402
    -3.1278  -2.9943  -2.8952  -2.8413  -2.7126  -2.6829  -2.6190  -2.5296
    -2.4683  -2.4025  -2.3435  -2.1596  -2.1361  -2.1282  -1.9877  -1.8142
    -1.7376  -1.6094  -1.5855  -1.4897  -1.2965  -1.2542  -1.1446  -1.0882
    -0.6415   0.5007   0.5533   1.6598   2.1094   3.0730   3.2083   4.1020
     4.6584   6.2715

          k = 0.1250-0.3536 0.0000 ( 15168 PWs)   bands (ev):

   -45.6873  -4.0703  -3.9574  -3.7293  -3.6848  -3.4887  -3.4418  -3.2972
    -3.0929  -2.9389  -2.8600  -2.7623  -2.7317  -2.7281  -2.6752  -2.6228
    -2.4920  -2.4410  -2.2854  -2.2343  -2.1661  -2.0432  -1.9549  -1.7685
    -1.6265  -1.5956  -1.5302  -1.4390  -1.3917  -1.2732  -1.1914  -0.7057
    -0.6631   0.2676   0.2963   1.6844   1.7937   2.6897   3.4049   3.8851
     4.0606   6.7256

          k = 0.1250-0.2652 0.0000 ( 15153 PWs)   bands (ev):

   -45.6873  -4.0839  -4.0081  -3.8584  -3.6213  -3.6059  -3.5578  -3.3402
    -3.1278  -2.9943  -2.8952  -2.8413  -2.7126  -2.6829  -2.6190  -2.5296
    -2.4683  -2.4025  -2.3435  -2.1596  -2.1361  -2.1282  -1.9877  -1.8142
    -1.7376  -1.6094  -1.5855  -1.4897  -1.2965  -1.2542  -1.1446  -1.0882
    -0.6415   0.5007   0.5533   1.6598   2.1094   3.0730   3.2083   4.1020
     4.6584   6.2715

          k = 0.1250-0.1768 0.0000 ( 15135 PWs)   bands (ev):

   -45.6873  -4.4976  -4.0148  -3.7877  -3.7659  -3.7340  -3.6203  -3.3720
    -3.2133  -3.1400  -2.9682  -2.8141  -2.7607  -2.6910  -2.5840  -2.4833
    -2.4359  -2.3926  -2.3686  -2.2867  -2.2180  -2.0634  -1.9631  -1.9358
    -1.7478  -1.6796  -1.5477  -1.4134  -1.2457  -1.1911  -1.1704  -1.0423
    -1.0329  -0.1457   1.4120   2.0386   2.6172   3.3104   4.0970   4.7151
     5.6005   5.9456

          k = 0.1250-0.0884 0.0000 ( 15111 PWs)   bands (ev):

   -45.6872  -4.8698  -4.0759  -3.9269  -3.8400  -3.6676  -3.5342  -3.4190
    -3.2760  -3.1843  -3.0551  -2.9029  -2.8007  -2.7382  -2.6875  -2.5298
    -2.4964  -2.4689  -2.4055  -2.3097  -2.1507  -2.0339  -1.8488  -1.8066
    -1.6995  -1.6434  -1.5554  -1.5053  -1.2859  -1.2396  -1.1832  -1.0296
    -0.9318  -0.5263   1.0538   2.1628   3.8187   3.8680   5.0735   5.2962
     6.0117   6.1567

          k = 0.2500-0.0000 0.0000 ( 15101 PWs)   bands (ev):

   -45.6835  -4.2859  -3.9348  -3.7277  -3.7173  -3.7037  -3.5841  -3.4837
    -3.3312  -3.2717  -3.1437  -3.0724  -2.9034  -2.7477  -2.7440  -2.5299
    -2.4428  -2.2175  -2.0506  -2.0474  -1.8782  -1.8320  -1.8217  -1.7230
    -1.6302  -1.5566  -1.4473  -1.4329  -1.3223  -1.2487  -1.2129  -0.8983
    -0.8464  -0.0528   1.6500   2.8257   4.5691   5.9339   6.5056   6.6972
     6.8196   7.4013

          k = 0.2500 0.0884 0.0000 ( 15103 PWs)   bands (ev):

   -45.6835  -4.2153  -3.8907  -3.7246  -3.6972  -3.6115  -3.4906  -3.4636
    -3.3075  -3.2048  -3.1464  -3.0459  -2.8623  -2.7825  -2.6247  -2.5484
    -2.4494  -2.2890  -2.2282  -2.0470  -1.9980  -1.8587  -1.8140  -1.7323
    -1.6620  -1.6265  -1.4981  -1.4012  -1.3205  -1.1761  -1.1208  -0.9532
    -0.9038   0.1931   1.8197   2.9799   4.6935   5.2055   6.0342   6.1497
     6.8575   6.9487

          k = 0.2500 0.1768 0.0000 ( 15121 PWs)   bands (ev):

   -45.6836  -4.0482  -3.8064  -3.6615  -3.6191  -3.4186  -3.3815  -3.2840
    -3.2019  -3.1227  -3.0628  -3.0045  -2.8024  -2.7790  -2.6465  -2.5146
    -2.4992  -2.4040  -2.2728  -2.1565  -2.0133  -1.9638  -1.9052  -1.8677
    -1.7573  -1.7457  -1.5506  -1.5058  -1.3066  -1.1959  -1.0509  -1.0422
    -0.5947   0.7936   2.2792   3.1826   3.5569   4.2418   5.1848   5.5585
     6.4732   6.7246

          k = 0.2500 0.2652 0.0000 ( 15099 PWs)   bands (ev):

   -45.6835  -3.8849  -3.7074  -3.6043  -3.5283  -3.2628  -3.2464  -3.1447
    -3.0869  -3.0190  -2.9866  -2.9371  -2.7842  -2.7133  -2.6577  -2.5852
    -2.5349  -2.3846  -2.3086  -2.2270  -2.0835  -2.0308  -2.0162  -1.9331
    -1.9023  -1.7405  -1.7127  -1.5885  -1.2967  -1.2233  -1.1621  -0.8674
     0.1746   1.4996   1.6224   2.7107   3.0223   3.9103   4.3111   5.2192
     5.5809   6.9958

          k = 0.2500-0.3536 0.0000 ( 15096 PWs)   bands (ev):

   -45.6835  -3.8145  -3.6433  -3.6016  -3.4563  -3.2701  -3.2080  -3.0794
    -3.0722  -3.0423  -2.9811  -2.8342  -2.6832  -2.6760  -2.5822  -2.5820
    -2.4926  -2.4316  -2.2936  -2.2528  -2.2226  -2.1333  -2.0362  -1.9910
    -1.9495  -1.7814  -1.7626  -1.4511  -1.4402  -1.3425  -1.2092   0.0606
     0.1682   1.1599   1.2956   2.7123   2.8160   3.8655   4.1725   4.8550
     5.2696   7.5859

          k = 0.2500-0.2652 0.0000 ( 15099 PWs)   bands (ev):

   -45.6835  -3.8849  -3.7074  -3.6043  -3.5283  -3.2628  -3.2464  -3.1447
    -3.0869  -3.0190  -2.9866  -2.9371  -2.7842  -2.7133  -2.6577  -2.5852
    -2.5349  -2.3846  -2.3086  -2.2270  -2.0835  -2.0308  -2.0162  -1.9331
    -1.9023  -1.7405  -1.7127  -1.5885  -1.2967  -1.2233  -1.1621  -0.8674
     0.1746   1.4996   1.6224   2.7107   3.0223   3.9103   4.3111   5.2192
     5.5809   6.9958

          k = 0.2500-0.1768 0.0000 ( 15121 PWs)   bands (ev):

   -45.6836  -4.0482  -3.8064  -3.6615  -3.6191  -3.4186  -3.3815  -3.2840
    -3.2019  -3.1227  -3.0628  -3.0045  -2.8024  -2.7790  -2.6465  -2.5146
    -2.4992  -2.4040  -2.2728  -2.1565  -2.0133  -1.9638  -1.9052  -1.8677
    -1.7573  -1.7457  -1.5506  -1.5058  -1.3066  -1.1959  -1.0509  -1.0422
    -0.5947   0.7936   2.2792   3.1826   3.5569   4.2418   5.1848   5.5585
     6.4732   6.7246

          k = 0.2500-0.0884 0.0000 ( 15103 PWs)   bands (ev):

   -45.6835  -4.2153  -3.8907  -3.7246  -3.6972  -3.6115  -3.4906  -3.4636
    -3.3075  -3.2048  -3.1464  -3.0459  -2.8623  -2.7825  -2.6247  -2.5484
    -2.4494  -2.2890  -2.2282  -2.0470  -1.9980  -1.8587  -1.8140  -1.7323
    -1.6620  -1.6265  -1.4981  -1.4012  -1.3205  -1.1761  -1.1208  -0.9532
    -0.9038   0.1931   1.8197   2.9799   4.6935   5.2055   6.0342   6.1497
     6.8575   6.9487

          k = 0.3750-0.0000 0.0000 ( 15069 PWs)   bands (ev):

   -45.6798  -4.1869  -4.0156  -4.0024  -3.9052  -3.7910  -3.5861  -3.5530
    -3.4749  -3.3418  -3.0447  -3.0363  -2.8027  -2.7848  -2.7486  -2.4434
    -2.2394  -2.0372  -1.9432  -1.8671  -1.7011  -1.6256  -1.4407  -1.3628
    -1.3132  -1.2457  -1.1873  -1.1274  -1.1197  -0.9177  -0.8347  -0.4791
    -0.1383   1.2147   2.7291   3.9815   4.4154   4.9938   5.8535   6.4755
     6.8720   7.6559

          k = 0.3750 0.0884 0.0000 ( 15052 PWs)   bands (ev):

   -45.6798  -4.1242  -3.9865  -3.9327  -3.8660  -3.7817  -3.6094  -3.4954
    -3.4428  -3.3447  -3.1632  -2.9403  -2.8325  -2.7023  -2.6303  -2.3585
    -2.2253  -2.0901  -1.9906  -1.9470  -1.8112  -1.6365  -1.5048  -1.4929
    -1.3627  -1.2532  -1.2026  -1.1280  -1.1040  -0.9790  -0.9233  -0.4856
     0.0727   1.4968   2.9330   4.1801   4.4810   5.1413   5.9834   6.5789
     7.0364   7.0939

          k = 0.3750 0.1768 0.0000 ( 15049 PWs)   bands (ev):

   -45.6797  -3.9808  -3.9591  -3.8066  -3.7753  -3.6681  -3.5838  -3.4202
    -3.3822  -3.2158  -3.1072  -2.9690  -2.7784  -2.6463  -2.5019  -2.4233
    -2.2824  -2.1576  -2.1024  -2.0054  -1.9599  -1.8206  -1.6498  -1.5459
    -1.3967  -1.3360  -1.2639  -1.2009  -1.1073  -1.0477  -1.0095  -0.4213
     0.6450   2.1363   3.4301   4.1748   4.6987   5.1243   5.9230   6.2794
     6.4849   6.8120

          k = 0.3750 0.2652 0.0000 ( 15057 PWs)   bands (ev):

   -45.6797  -4.0274  -3.8543  -3.7405  -3.5578  -3.5196  -3.4010  -3.2939
    -3.1954  -3.1070  -2.9960  -2.9766  -2.7959  -2.7165  -2.5685  -2.5285
    -2.4614  -2.3942  -2.2646  -2.1144  -1.9566  -1.7853  -1.6791  -1.6193
    -1.5122  -1.3789  -1.3651  -1.1980  -1.1479  -1.1067  -1.0589   0.1261
     1.4384   2.6413   2.9472   4.0631   4.2204   5.1521   5.5987   6.3508
     6.6764   6.9893

          k = 0.3750-0.3536 0.0000 ( 15056 PWs)   bands (ev):

   -45.6797  -4.0324  -3.9214  -3.5733  -3.4465  -3.3870  -3.3127  -3.1890
    -3.1858  -3.0048  -2.9746  -2.9519  -2.9265  -2.7483  -2.7381  -2.6327
    -2.4821  -2.3916  -2.3494  -2.1440  -1.9366  -1.8285  -1.7070  -1.6585
    -1.4848  -1.3977  -1.3127  -1.2865  -1.2066  -1.1634  -1.0731   1.1235
     1.3131   2.3769   2.6673   3.9557   4.2777   5.0744   5.4238   6.4637
     6.9819   7.1151

          k = 0.3750-0.2652 0.0000 ( 15057 PWs)   bands (ev):

   -45.6797  -4.0274  -3.8543  -3.7405  -3.5578  -3.5196  -3.4010  -3.2939
    -3.1954  -3.1070  -2.9960  -2.9766  -2.7959  -2.7165  -2.5685  -2.5285
    -2.4614  -2.3942  -2.2646  -2.1144  -1.9566  -1.7853  -1.6791  -1.6193
    -1.5122  -1.3789  -1.3651  -1.1980  -1.1479  -1.1067  -1.0589   0.1261
     1.4384   2.6413   2.9472   4.0631   4.2204   5.1521   5.5987   6.3508
     6.6765   6.9895

          k = 0.3750-0.1768 0.0000 ( 15049 PWs)   bands (ev):

   -45.6797  -3.9808  -3.9591  -3.8066  -3.7753  -3.6681  -3.5838  -3.4202
    -3.3822  -3.2158  -3.1072  -2.9690  -2.7784  -2.6463  -2.5019  -2.4233
    -2.2824  -2.1576  -2.1024  -2.0054  -1.9599  -1.8206  -1.6498  -1.5459
    -1.3967  -1.3360  -1.2639  -1.2009  -1.1073  -1.0477  -1.0095  -0.4213
     0.6450   2.1363   3.4301   4.1748   4.6987   5.1243   5.9230   6.2794
     6.4849   6.8120

          k = 0.3750-0.0884 0.0000 ( 15052 PWs)   bands (ev):

   -45.6798  -4.1242  -3.9865  -3.9327  -3.8660  -3.7817  -3.6094  -3.4954
    -3.4428  -3.3447  -3.1632  -2.9403  -2.8325  -2.7023  -2.6303  -2.3585
    -2.2253  -2.0901  -1.9906  -1.9470  -1.8112  -1.6365  -1.5048  -1.4929
    -1.3627  -1.2532  -1.2026  -1.1280  -1.1040  -0.9790  -0.9233  -0.4856
     0.0727   1.4968   2.9330   4.1801   4.4810   5.1413   5.9834   6.5789
     7.0364   7.0939

          k =-0.5000 0.0000 0.0000 ( 14992 PWs)   bands (ev):

   -45.6782  -4.2995  -4.1281  -4.1200  -4.0267  -3.7547  -3.6752  -3.6118
    -3.5802  -3.2362  -3.1678  -2.8663  -2.8361  -2.8301  -2.7716  -2.3101
    -2.1691  -1.9893  -1.9258  -1.8484  -1.5607  -1.3962  -1.3477  -1.2757
    -1.2686  -1.1710  -1.1113  -1.0392  -0.9030  -0.8772  -0.8603   1.5136
     1.6123   2.0423   2.2741   2.8866   3.5073   4.8459   4.8756   6.1821
     6.1923   8.4265

          k =-0.5000 0.0884 0.0000 ( 14998 PWs)   bands (ev):

   -45.6781  -4.2311  -4.0937  -4.0329  -3.9724  -3.7744  -3.7481  -3.5780
    -3.4680  -3.3495  -3.2186  -2.9565  -2.7638  -2.7359  -2.6570  -2.2590
    -2.0816  -1.9994  -1.9627  -1.8736  -1.7191  -1.5268  -1.3735  -1.3079
    -1.2829  -1.2251  -1.1243  -1.0411  -0.9854  -0.9544  -0.8410   1.5640
     1.6805   2.2026   2.4682   3.1651   3.7847   5.0084   5.0298   6.2761
     6.3381   8.5023

          k =-0.5000 0.1768 0.0000 ( 15026 PWs)   bands (ev):

   -45.6782  -4.0514  -4.0123  -3.8995  -3.8678  -3.7843  -3.7698  -3.5107
    -3.4117  -3.2729  -3.1567  -3.0120  -2.7472  -2.6722  -2.5253  -2.3458
    -2.1182  -2.1072  -1.9707  -1.9239  -1.8695  -1.6724  -1.5321  -1.4654
    -1.3857  -1.3457  -1.1601  -1.1094  -0.9225  -0.9202  -0.8500   1.7118
     1.8724   2.6260   2.9585   3.8176   4.4617   5.4784   5.5003   6.4671
     6.7517   7.4116

          k =-0.5000 0.2652 0.0000 ( 15032 PWs)   bands (ev):

   -45.6781  -4.0931  -3.9905  -3.8246  -3.7058  -3.5544  -3.5254  -3.4686
    -3.2358  -3.1103  -3.0559  -3.0118  -2.8479  -2.6683  -2.6119  -2.4937
    -2.4098  -2.2955  -2.1754  -2.1296  -1.9238  -1.6740  -1.5924  -1.5174
    -1.4184  -1.3107  -1.0598  -1.0515  -0.9268  -0.9224  -0.8619   1.9221
     2.1444   3.1599   3.5905   4.5879   5.2367   5.9148   6.1114   6.2286
     6.2344   6.5156

          k =-0.5000-0.3536 0.0000 ( 15032 PWs)   bands (ev):

   -45.6781  -4.1354  -4.0451  -3.6871  -3.5475  -3.5349  -3.4110  -3.2694
    -3.1366  -3.0670  -3.0387  -2.9336  -2.8910  -2.7951  -2.7730  -2.7254
    -2.5084  -2.3149  -2.2913  -2.0949  -1.9548  -1.8042  -1.6087  -1.4306
    -1.4040  -1.3411  -0.9924  -0.9917  -0.9420  -0.9332  -0.8550   2.0423
     2.3061   3.4627   4.0013   5.1271   5.3467   5.6349   5.7755   5.9339
     6.0709   6.7543

     the Fermi energy is     1.9269 ev

!    total energy              =    -520.49857685 Ry
     estimated scf accuracy    <       0.00000014 Ry
     smearing contrib. (-TS)   =      -0.00036378 Ry
     internal energy E=F+TS    =    -520.49821307 Ry

     The total energy is F=E-TS. E is the sum of the following terms:
     one-electron contribution =   -5291.93018268 Ry
     hartree contribution      =    2692.35215928 Ry
     xc contribution           =    -137.54595545 Ry
     ewald contribution        =    2216.79341782 Ry
     DFT-D3 Dispersion         =      -0.16765204 Ry

     convergence has been achieved in  11 iterations

     negative rho (up, down):  1.137E-05 0.000E+00

     Forces acting on atoms (cartesian axes, Ry/au):

     atom    1 type  2   force =    -0.00000019   -0.00000056   -0.00098964
     atom    2 type  2   force =     0.00000057    0.00000059   -0.09316598
     atom    3 type  2   force =    -0.00000199   -0.00000073    0.00605933
     atom    4 type  2   force =    -0.00000019    0.00000030   -0.00583834
     atom    5 type  2   force =     0.00000139    0.00000108    0.00723988
     atom    6 type  2   force =     0.00000088   -0.00000032   -0.00777491
     atom    7 type  1   force =    -0.00000048   -0.00000037    0.09446965
     The non-local contrib.  to forces
     atom    1 type  2   force =     0.00000045    0.00000128    0.01316080
     atom    2 type  2   force =    -0.00000014    0.00000115    0.18922123
     atom    3 type  2   force =    -0.00000165   -0.00000040   -0.01999819
     atom    4 type  2   force =     0.00000171    0.00000064    0.02030824
     atom    5 type  2   force =     0.00000181    0.00000118   -0.13114053
     atom    6 type  2   force =     0.00000209   -0.00000121   -0.00705739
     atom    7 type  1   force =     0.00000012   -0.00000012    0.07776367
     The ionic contribution  to forces
     atom    1 type  2   force =     0.00000493   -0.00000511   67.33695029
     atom    2 type  2   force =    -0.00000080   -0.00000012  105.08686400
     atom    3 type  2   force =     0.00000149   -0.00000116  -29.37592556
     atom    4 type  2   force =    -0.00000560    0.00000631   17.42828171
     atom    5 type  2   force =     0.00000000   -0.00000001 -118.18231795
     atom    6 type  2   force =    -0.00000004    0.00000012  -78.14645166
     atom    7 type  1   force =     0.00000001   -0.00000001   35.85259917
     The local contribution  to forces
     atom    1 type  2   force =    -0.00000361    0.00000246  -67.34723152
     atom    2 type  2   force =     0.00000165    0.00000109 -105.37423248
     atom    3 type  2   force =    -0.00000124    0.00000207   29.40008579
     atom    4 type  2   force =     0.00000487   -0.00000576  -17.45279352
     atom    5 type  2   force =    -0.00000149    0.00000169  118.31034057
     atom    6 type  2   force =     0.00000025    0.00000067   78.13769319
     atom    7 type  1   force =     0.00000050   -0.00000002  -35.83313004
     The core correction contribution to forces
     atom    1 type  2   force =     0.00000006   -0.00000004   -0.00121075
     atom    2 type  2   force =     0.00000002    0.00000004    0.01030171
     atom    3 type  2   force =     0.00000002    0.00000005   -0.00034068
     atom    4 type  2   force =     0.00000000    0.00000005    0.00048618
     atom    5 type  2   force =    -0.00000013    0.00000001    0.00602883
     atom    6 type  2   force =    -0.00000000    0.00000003    0.00272023
     atom    7 type  1   force =     0.00000000    0.00000000    0.00000000
     The Hubbard contrib.    to forces
     atom    1 type  2   force =     0.00000000    0.00000000    0.00000000
     atom    2 type  2   force =     0.00000000    0.00000000    0.00000000
     atom    3 type  2   force =     0.00000000    0.00000000    0.00000000
     atom    4 type  2   force =     0.00000000    0.00000000    0.00000000
     atom    5 type  2   force =     0.00000000    0.00000000    0.00000000
     atom    6 type  2   force =     0.00000000    0.00000000    0.00000000
     atom    7 type  1   force =     0.00000000    0.00000000    0.00000000
     The SCF correction term to forces
     atom    1 type  2   force =    -0.00000134    0.00000083    0.00038194
     atom    2 type  2   force =     0.00000050   -0.00000160   -0.00073915
     atom    3 type  2   force =     0.00000004   -0.00000131   -0.00051082
     atom    4 type  2   force =    -0.00000054   -0.00000095   -0.00034603
     atom    5 type  2   force =     0.00000185   -0.00000182    0.00023658
     atom    6 type  2   force =    -0.00000076    0.00000005    0.00003466
     atom    7 type  1   force =    -0.00000045   -0.00000024   -0.00019509

     DFT-D3 dispersion contribution to forces:
     atom    1 type  2   force =    -0.00000002    0.00000001   -0.00306363
     atom    2 type  2   force =    -0.00000000    0.00000000   -0.00460451
     atom    3 type  2   force =     0.00000000   -0.00000000    0.00272558
     atom    4 type  2   force =     0.00000002   -0.00000001   -0.00179815
     atom    5 type  2   force =    -0.00000000    0.00000000    0.00406916
     atom    6 type  2   force =    -0.00000000    0.00000000    0.00526284
     atom    7 type  1   force =     0.00000000   -0.00000000   -0.00259129

     Total force =     0.133376     Total SCF correction =     0.001081


     Computing stress (Cartesian axis) and pressure


     negative rho (up, down):  1.137E-05 0.000E+00
          total   stress  (Ry/bohr**3)                   (kbar)     P=       -6.91
  -0.00010493  -0.00000000   0.00000000          -15.44       -0.00        0.00
  -0.00000000  -0.00013604  -0.00000000           -0.00      -20.01       -0.00
   0.00000000  -0.00000000   0.00009999            0.00       -0.00       14.71


     BFGS Geometry Optimization
     Energy error            =      0.0E+00 Ry
     Gradient error          =      9.4E-02 Ry/Bohr

     number of scf cycles    =   1
     number of bfgs steps    =   0

     energy             new  =    -520.4985768459 Ry

     new trust radius        =       0.0944696534 bohr
     new conv_thr            =       0.0000010000 Ry


ATOMIC_POSITIONS (angstrom)
Ag            2.1766593768        3.0782680214       15.8486239049
Ag            0.7255500795        1.0260906495       17.1634604644
Ag            2.1766626093        3.0782668847       12.9054246741
Ag            0.7255544538        1.0260892502       14.3502378038
Ag            2.1766643962        3.0782678386       10.0038311816
Ag            0.7255550200        1.0260889225       11.4469948029
Li            0.7255495253        1.0260901400       19.2627529634



     Writing config-only to output data dir ./Ag_mp-124_110_ontop_0/Ag_mp-124_110_ontop_0.save/
     NEW-OLD atomic charge density approx. for the potential

     negative rho (up, down):  1.549E-05 0.000E+00

     total cpu time spent up to now is       24.4 secs

     per-process dynamical memory:   187.8 Mb

     Self-consistent Calculation

     iteration #  1     ecut=    55.00 Ry     beta= 0.30
     Davidson diagonalization with overlap
     ethr =  1.00E-06,  avg # of iterations =  8.2

     negative rho (up, down):  1.385E-05 0.000E+00

     total cpu time spent up to now is       27.2 secs

     total energy              =    -520.51265584 Ry
     estimated scf accuracy    <       0.00103378 Ry

     iteration #  2     ecut=    55.00 Ry     beta= 0.30
     Davidson diagonalization with overlap
     ethr =  1.50E-06,  avg # of iterations =  5.9

     negative rho (up, down):  2.162E-05 0.000E+00

     total cpu time spent up to now is       28.4 secs

     total energy              =    -520.51180554 Ry
     estimated scf accuracy    <       0.03228782 Ry

     iteration #  3     ecut=    55.00 Ry     beta= 0.30
     Davidson diagonalization with overlap
     ethr =  1.50E-06,  avg # of iterations =  5.6

     negative rho (up, down):  1.661E-05 0.000E+00

     total cpu time spent up to now is       29.3 secs

     total energy              =    -520.51291652 Ry
     estimated scf accuracy    <       0.00033284 Ry

     iteration #  4     ecut=    55.00 Ry     beta= 0.30
     Davidson diagonalization with overlap
     ethr =  4.82E-07,  avg # of iterations =  1.4

     negative rho (up, down):  1.808E-05 0.000E+00

     total cpu time spent up to now is       29.9 secs

     total energy              =    -520.51292232 Ry
     estimated scf accuracy    <       0.00010231 Ry

     iteration #  5     ecut=    55.00 Ry     beta= 0.30
     Davidson diagonalization with overlap
     ethr =  1.48E-07,  avg # of iterations =  1.4

     negative rho (up, down):  1.447E-05 0.000E+00

     total cpu time spent up to now is       30.5 secs

     total energy              =    -520.51293266 Ry
     estimated scf accuracy    <       0.00005593 Ry

     iteration #  6     ecut=    55.00 Ry     beta= 0.30
     Davidson diagonalization with overlap
     ethr =  8.11E-08,  avg # of iterations =  1.2

     negative rho (up, down):  1.203E-05 0.000E+00

     total cpu time spent up to now is       31.0 secs

     total energy              =    -520.51293721 Ry
     estimated scf accuracy    <       0.00000599 Ry

     iteration #  7     ecut=    55.00 Ry     beta= 0.30
     Davidson diagonalization with overlap
     ethr =  8.69E-09,  avg # of iterations =  1.9

     negative rho (up, down):  1.301E-05 0.000E+00

     total cpu time spent up to now is       31.6 secs

     total energy              =    -520.51293792 Ry
     estimated scf accuracy    <       0.00000146 Ry

     iteration #  8     ecut=    55.00 Ry     beta= 0.30
     Davidson diagonalization with overlap
     ethr =  2.12E-09,  avg # of iterations =  2.7

     negative rho (up, down):  1.182E-05 0.000E+00

     total cpu time spent up to now is       32.1 secs

     End of self-consistent calculation

          k = 0.0000 0.0000 0.0000 ( 15163 PWs)   bands (ev):

   -45.6868  -5.3426  -4.3510  -4.2177  -4.0105  -3.9039  -3.4931  -3.4710
    -3.2456  -3.1615  -3.0162  -2.8681  -2.7931  -2.7041  -2.6301  -2.6137
    -2.5010  -2.4256  -2.2890  -2.2890  -2.0188  -1.9433  -1.9395  -1.9295
    -1.8521  -1.7722  -1.6062  -1.4567  -1.4059  -1.1377  -1.1276  -1.0256
    -0.8268  -0.7799   0.6694   1.7287   3.4186   4.2109   4.8806   5.6210
     5.7613   5.8135

          k = 0.0000 0.0884 0.0000 ( 15115 PWs)   bands (ev):

   -45.6867  -5.1971  -4.3040  -4.1757  -3.9710  -3.8933  -3.6591  -3.5055
    -3.3095  -3.1017  -2.9035  -2.8208  -2.7657  -2.6834  -2.6188  -2.5131
    -2.5092  -2.3828  -2.2567  -2.2245  -2.1806  -1.9582  -1.9420  -1.8415
    -1.7934  -1.6763  -1.6196  -1.5556  -1.2526  -1.2191  -1.1925  -0.9760
    -0.8799  -0.7542   0.7549   1.8395   3.2221   3.5049   4.6908   5.0164
     5.6947   5.8899

          k = 0.0000 0.1768 0.0000 ( 15114 PWs)   bands (ev):

   -45.6867  -4.7951  -4.2487  -4.0482  -3.9422  -3.8589  -3.8430  -3.5272
    -3.2202  -3.0955  -2.9060  -2.7006  -2.6962  -2.6635  -2.5498  -2.5439
    -2.4408  -2.3719  -2.2462  -2.2277  -2.0307  -2.0250  -1.8283  -1.7352
    -1.6942  -1.5986  -1.5732  -1.4412  -1.3842  -1.2502  -1.1205  -0.9957
    -0.9339  -0.5983   1.0273   1.4641   2.2378   2.9253   3.6622   4.3876
     5.2467   5.6529

          k = 0.0000 0.2652 0.0000 ( 15152 PWs)   bands (ev):

   -45.6868  -4.3253  -4.2427  -4.0848  -3.8896  -3.8541  -3.6533  -3.4858
    -3.1735  -3.0213  -2.8416  -2.7603  -2.7092  -2.6868  -2.6001  -2.4791
    -2.4448  -2.3092  -2.3081  -2.1345  -2.0516  -1.9949  -1.7716  -1.6923
    -1.5024  -1.4690  -1.3998  -1.3652  -1.2585  -1.1783  -1.1129  -1.0013
    -0.9494  -0.0842  -0.0244   1.1596   1.6682   2.6099   2.8540   3.6579
     4.2835   6.0204

          k = 0.0000-0.3536 0.0000 ( 15118 PWs)   bands (ev):

   -45.6867  -4.3028  -4.1812  -3.9578  -3.9255  -3.7744  -3.5618  -3.4037
    -3.2132  -2.9118  -2.8138  -2.7855  -2.7690  -2.6966  -2.6413  -2.4306
    -2.4130  -2.3399  -2.2651  -2.1608  -2.1085  -2.0199  -1.8238  -1.5374
    -1.4290  -1.3340  -1.2839  -1.2448  -1.1710  -1.1614  -1.1016  -1.0001
    -0.9598  -0.3015  -0.2766   1.1178   1.3507   2.0915   3.0825   3.5420
     3.5774   6.4517

          k = 0.1250-0.0000 0.0000 ( 15077 PWs)   bands (ev):

   -45.6851  -5.0396  -4.1627  -3.9972  -3.8826  -3.7136  -3.4322  -3.3700
    -3.2233  -3.2204  -3.1765  -2.9860  -2.8802  -2.7492  -2.7381  -2.5931
    -2.5536  -2.4358  -2.4056  -2.3155  -2.0709  -1.9174  -1.8023  -1.7807
    -1.7577  -1.6413  -1.5416  -1.4875  -1.3781  -1.2642  -1.2516  -1.0062
    -0.8590  -0.6251   0.9127   2.0036   3.7270   4.8910   5.1539   5.9073
     6.0398   6.2555

          k = 0.1250 0.0884 0.0000 ( 15111 PWs)   bands (ev):

   -45.6852  -4.9035  -4.1078  -3.9546  -3.8565  -3.6821  -3.5581  -3.4083
    -3.2772  -3.1838  -3.0659  -2.9074  -2.7991  -2.7435  -2.6885  -2.5146
    -2.5043  -2.4813  -2.3910  -2.3097  -2.1508  -2.0446  -1.8589  -1.8060
    -1.7047  -1.6439  -1.5477  -1.5069  -1.2952  -1.2343  -1.1893  -1.0417
    -0.9369  -0.5264   1.0299   2.1294   3.8138   3.8475   5.0826   5.3019
     6.0112   6.1728

          k = 0.1250 0.1768 0.0000 ( 15135 PWs)   bands (ev):

   -45.6853  -4.5314  -4.0437  -3.8117  -3.7843  -3.7567  -3.6213  -3.3814
    -3.2157  -3.1411  -2.9821  -2.8227  -2.7555  -2.6786  -2.5753  -2.4941
    -2.4364  -2.4018  -2.3747  -2.2901  -2.2072  -2.0659  -1.9685  -1.9506
    -1.7430  -1.6704  -1.5407  -1.4093  -1.2395  -1.2012  -1.1816  -1.0526
    -1.0419  -0.1457   1.3841   2.0265   2.5820   3.3166   4.0704   4.7075
     5.5661   5.9116

          k = 0.1250 0.2652 0.0000 ( 15153 PWs)   bands (ev):

   -45.6853  -4.1195  -4.0329  -3.8776  -3.6290  -3.6160  -3.5736  -3.3524
    -3.1464  -3.0076  -2.9024  -2.8411  -2.6982  -2.6825  -2.6127  -2.5346
    -2.4712  -2.4181  -2.3502  -2.1568  -2.1387  -2.1235  -1.9914  -1.8182
    -1.7351  -1.6153  -1.5572  -1.4888  -1.3040  -1.2592  -1.1475  -1.0979
    -0.6499   0.4939   0.5522   1.6524   2.0825   3.0657   3.1690   4.0770
     4.5775   6.2706

          k = 0.1250-0.3536 0.0000 ( 15168 PWs)   bands (ev):

   -45.6853  -4.1040  -3.9771  -3.7458  -3.6959  -3.5021  -3.4486  -3.3142
    -3.1093  -2.9607  -2.8691  -2.7554  -2.7543  -2.7115  -2.6723  -2.6311
    -2.4937  -2.4503  -2.2973  -2.2125  -2.1405  -2.0544  -1.9739  -1.7575
    -1.6202  -1.5900  -1.5285  -1.4383  -1.4018  -1.2767  -1.1990  -0.7134
    -0.6678   0.2630   0.2915   1.7015   1.7755   2.6576   3.3579   3.8304
     4.0105   6.7046

          k = 0.1250-0.2652 0.0000 ( 15153 PWs)   bands (ev):

   -45.6853  -4.1195  -4.0329  -3.8776  -3.6290  -3.6160  -3.5736  -3.3524
    -3.1464  -3.0076  -2.9024  -2.8411  -2.6982  -2.6825  -2.6127  -2.5346
    -2.4712  -2.4181  -2.3502  -2.1568  -2.1387  -2.1235  -1.9914  -1.8182
    -1.7351  -1.6153  -1.5572  -1.4888  -1.3040  -1.2592  -1.1475  -1.0979
    -0.6499   0.4939   0.5522   1.6524   2.0825   3.0657   3.1690   4.0770
     4.5775   6.2706

          k = 0.1250-0.1768 0.0000 ( 15135 PWs)   bands (ev):

   -45.6853  -4.5314  -4.0437  -3.8117  -3.7843  -3.7567  -3.6213  -3.3814
    -3.2157  -3.1411  -2.9821  -2.8227  -2.7555  -2.6786  -2.5753  -2.4941
    -2.4364  -2.4018  -2.3747  -2.2901  -2.2072  -2.0659  -1.9685  -1.9506
    -1.7430  -1.6704  -1.5407  -1.4093  -1.2395  -1.2012  -1.1816  -1.0526
    -1.0419  -0.1457   1.3841   2.0265   2.5820   3.3166   4.0704   4.7075
     5.5661   5.9116

          k = 0.1250-0.0884 0.0000 ( 15111 PWs)   bands (ev):

   -45.6852  -4.9035  -4.1078  -3.9546  -3.8565  -3.6821  -3.5581  -3.4083
    -3.2772  -3.1838  -3.0659  -2.9074  -2.7991  -2.7435  -2.6885  -2.5146
    -2.5043  -2.4813  -2.3910  -2.3097  -2.1508  -2.0446  -1.8589  -1.8060
    -1.7047  -1.6439  -1.5477  -1.5069  -1.2952  -1.2343  -1.1893  -1.0417
    -0.9369  -0.5264   1.0299   2.1294   3.8138   3.8475   5.0825   5.3019
     6.0112   6.1727

          k = 0.2500-0.0000 0.0000 ( 15101 PWs)   bands (ev):

   -45.6816  -4.3219  -3.9635  -3.7483  -3.7471  -3.7229  -3.6041  -3.5012
    -3.3365  -3.2960  -3.1642  -3.0617  -2.9100  -2.7548  -2.6926  -2.5312
    -2.4305  -2.2159  -2.0483  -2.0430  -1.8932  -1.8287  -1.7976  -1.7219
    -1.6409  -1.5349  -1.4503  -1.4410  -1.3327  -1.2575  -1.2174  -0.8987
    -0.8558  -0.0470   1.6180   2.7918   4.5448   5.9309   6.5139   6.6940
     6.8319   7.4191

          k = 0.2500 0.0884 0.0000 ( 15103 PWs)   bands (ev):

   -45.6815  -4.2513  -3.9212  -3.7460  -3.7182  -3.6348  -3.5121  -3.4788
    -3.3151  -3.2251  -3.1583  -3.0346  -2.8690  -2.7616  -2.6075  -2.5485
    -2.4385  -2.3075  -2.2205  -2.0540  -1.9759  -1.8646  -1.8074  -1.7472
    -1.6563  -1.5977  -1.5061  -1.4047  -1.3316  -1.1806  -1.1214  -0.9584
    -0.9141   0.1969   1.7856   2.9463   4.6705   5.2031   6.0338   6.1587
     6.8509   6.9589

          k = 0.2500 0.1768 0.0000 ( 15121 PWs)   bands (ev):

   -45.6816  -4.0833  -3.8385  -3.6797  -3.6376  -3.4411  -3.3925  -3.2974
    -3.2103  -3.1298  -3.0805  -2.9931  -2.8107  -2.7529  -2.6525  -2.5211
    -2.4805  -2.4037  -2.2804  -2.1742  -1.9990  -1.9673  -1.9025  -1.8796
    -1.7637  -1.7196  -1.5461  -1.5070  -1.3129  -1.1906  -1.0599  -1.0523
    -0.6022   0.7948   2.2409   3.1657   3.5332   4.2505   5.1527   5.5401
     6.4646   6.6730

          k = 0.2500 0.2652 0.0000 ( 15099 PWs)   bands (ev):

   -45.6815  -3.9161  -3.7369  -3.6213  -3.5473  -3.2738  -3.2429  -3.1478
    -3.0984  -3.0229  -3.0039  -2.9512  -2.7918  -2.6842  -2.6681  -2.5941
    -2.5177  -2.3901  -2.3109  -2.2375  -2.0875  -2.0370  -2.0114  -1.9380
    -1.9027  -1.7432  -1.7020  -1.5900  -1.2959  -1.2306  -1.1701  -0.8714
     0.1713   1.4982   1.6171   2.7038   2.9884   3.8762   4.2989   5.1763
     5.5232   6.9855

          k = 0.2500-0.3536 0.0000 ( 15096 PWs)   bands (ev):

   -45.6815  -3.8420  -3.6705  -3.6203  -3.4724  -3.2897  -3.2014  -3.0818
    -3.0782  -3.0245  -2.9986  -2.8604  -2.6986  -2.6621  -2.5856  -2.5729
    -2.5009  -2.4336  -2.2975  -2.2569  -2.2155  -2.1297  -2.0439  -1.9985
    -1.9622  -1.7729  -1.7557  -1.4544  -1.4532  -1.3391  -1.2184   0.0562
     0.1630   1.1605   1.2950   2.6873   2.8246   3.8244   4.1212   4.8025
     5.2390   7.5675

          k = 0.2500-0.2652 0.0000 ( 15099 PWs)   bands (ev):

   -45.6815  -3.9161  -3.7369  -3.6213  -3.5473  -3.2738  -3.2429  -3.1478
    -3.0984  -3.0229  -3.0039  -2.9512  -2.7918  -2.6842  -2.6681  -2.5941
    -2.5177  -2.3901  -2.3109  -2.2375  -2.0875  -2.0370  -2.0114  -1.9380
    -1.9027  -1.7432  -1.7020  -1.5900  -1.2959  -1.2306  -1.1701  -0.8714
     0.1713   1.4982   1.6171   2.7038   2.9884   3.8762   4.2989   5.1763
     5.5232   6.9856

          k = 0.2500-0.1768 0.0000 ( 15121 PWs)   bands (ev):

   -45.6816  -4.0833  -3.8385  -3.6797  -3.6376  -3.4411  -3.3925  -3.2974
    -3.2103  -3.1298  -3.0805  -2.9931  -2.8107  -2.7529  -2.6525  -2.5211
    -2.4805  -2.4037  -2.2804  -2.1742  -1.9990  -1.9673  -1.9025  -1.8796
    -1.7637  -1.7196  -1.5461  -1.5070  -1.3129  -1.1906  -1.0599  -1.0523
    -0.6022   0.7948   2.2409   3.1657   3.5332   4.2505   5.1527   5.5401
     6.4646   6.6731

          k = 0.2500-0.0884 0.0000 ( 15103 PWs)   bands (ev):

   -45.6815  -4.2513  -3.9212  -3.7460  -3.7182  -3.6348  -3.5121  -3.4788
    -3.3151  -3.2251  -3.1583  -3.0346  -2.8690  -2.7616  -2.6075  -2.5485
    -2.4385  -2.3075  -2.2205  -2.0540  -1.9759  -1.8646  -1.8074  -1.7472
    -1.6563  -1.5977  -1.5061  -1.4047  -1.3316  -1.1806  -1.1214  -0.9584
    -0.9141   0.1969   1.7856   2.9463   4.6705   5.2031   6.0338   6.1587
     6.8509   6.9588

          k = 0.3750-0.0000 0.0000 ( 15069 PWs)   bands (ev):

   -45.6779  -4.2183  -4.0521  -4.0225  -3.9265  -3.8027  -3.5994  -3.5703
    -3.4961  -3.3491  -3.0685  -3.0495  -2.8099  -2.7786  -2.7640  -2.4064
    -2.2215  -1.9665  -1.9317  -1.8679  -1.6910  -1.6364  -1.4419  -1.3585
    -1.3182  -1.2563  -1.1926  -1.1342  -1.1131  -0.9339  -0.8368  -0.4874
    -0.1402   1.2237   2.6901   3.9460   4.3968   4.9849   5.8091   6.4280
     6.8262   7.6491

          k = 0.3750 0.0884 0.0000 ( 15052 PWs)   bands (ev):

   -45.6778  -4.1550  -4.0189  -3.9563  -3.8856  -3.8006  -3.6148  -3.5137
    -3.4642  -3.3593  -3.1592  -2.9539  -2.8320  -2.6962  -2.6412  -2.3402
    -2.2066  -2.0806  -1.9759  -1.9083  -1.8151  -1.6295  -1.5177  -1.4945
    -1.3637  -1.2558  -1.2013  -1.1243  -1.1145  -0.9889  -0.9301  -0.4947
     0.0698   1.5039   2.8905   4.1459   4.4633   5.1368   5.9376   6.5295
     7.0000   7.0899

          k = 0.3750 0.1768 0.0000 ( 15049 PWs)   bands (ev):

   -45.6778  -4.0107  -3.9886  -3.8290  -3.7962  -3.6816  -3.6047  -3.4164
    -3.3948  -3.2294  -3.0943  -2.9684  -2.7710  -2.6344  -2.5093  -2.4406
    -2.2914  -2.1484  -2.0848  -1.9982  -1.9623  -1.7966  -1.6600  -1.5500
    -1.3961  -1.3365  -1.2541  -1.2122  -1.1128  -1.0570  -1.0214  -0.4305
     0.6433   2.1386   3.3879   4.1561   4.6634   5.1317   5.9142   6.2305
     6.4862   6.7454

          k = 0.3750 0.2652 0.0000 ( 15057 PWs)   bands (ev):

   -45.6777  -4.0589  -3.8758  -3.7591  -3.5709  -3.5403  -3.3942  -3.2976
    -3.1986  -3.0953  -2.9895  -2.9747  -2.8084  -2.7307  -2.5809  -2.5212
    -2.4734  -2.4005  -2.2688  -2.1050  -1.9557  -1.7557  -1.6846  -1.6290
    -1.5173  -1.3814  -1.3606  -1.2092  -1.1558  -1.1174  -1.0706   0.1179
     1.4411   2.6393   2.9390   4.0664   4.1623   5.1175   5.5636   6.3256
     6.6681   6.9339

          k = 0.3750-0.3536 0.0000 ( 15056 PWs)   bands (ev):

   -45.6777  -4.0647  -3.9426  -3.5697  -3.4648  -3.3902  -3.3130  -3.2057
    -3.1758  -2.9846  -2.9656  -2.9535  -2.9476  -2.7635  -2.7572  -2.6487
    -2.4948  -2.3825  -2.3493  -2.1408  -1.9471  -1.8197  -1.6791  -1.6703
    -1.4864  -1.3977  -1.3260  -1.2982  -1.2185  -1.1695  -1.0847   1.1210
     1.3039   2.3851   2.6658   3.9161   4.2805   5.0111   5.3751   6.4008
     6.9540   7.1157

          k = 0.3750-0.2652 0.0000 ( 15057 PWs)   bands (ev):

   -45.6777  -4.0589  -3.8758  -3.7591  -3.5709  -3.5403  -3.3942  -3.2976
    -3.1986  -3.0953  -2.9895  -2.9747  -2.8084  -2.7307  -2.5809  -2.5212
    -2.4734  -2.4005  -2.2688  -2.1050  -1.9557  -1.7557  -1.6846  -1.6290
    -1.5173  -1.3814  -1.3606  -1.2092  -1.1558  -1.1174  -1.0706   0.1179
     1.4411   2.6393   2.9390   4.0664   4.1623   5.1175   5.5636   6.3256
     6.6681   6.9339

          k = 0.3750-0.1768 0.0000 ( 15049 PWs)   bands (ev):

   -45.6778  -4.0107  -3.9886  -3.8290  -3.7962  -3.6816  -3.6047  -3.4164
    -3.3948  -3.2294  -3.0943  -2.9684  -2.7710  -2.6344  -2.5093  -2.4406
    -2.2914  -2.1484  -2.0848  -1.9982  -1.9623  -1.7966  -1.6600  -1.5500
    -1.3961  -1.3365  -1.2541  -1.2122  -1.1128  -1.0570  -1.0214  -0.4305
     0.6433   2.1386   3.3879   4.1561   4.6634   5.1317   5.9142   6.2305
     6.4862   6.7455

          k = 0.3750-0.0884 0.0000 ( 15052 PWs)   bands (ev):

   -45.6778  -4.1550  -4.0189  -3.9563  -3.8856  -3.8006  -3.6148  -3.5137
    -3.4642  -3.3593  -3.1592  -2.9539  -2.8320  -2.6962  -2.6412  -2.3402
    -2.2066  -2.0806  -1.9759  -1.9083  -1.8151  -1.6295  -1.5177  -1.4945
    -1.3637  -1.2558  -1.2013  -1.1243  -1.1145  -0.9889  -0.9301  -0.4947
     0.0698   1.5039   2.8905   4.1459   4.4633   5.1368   5.9376   6.5295
     7.0000   7.0899

          k =-0.5000 0.0000 0.0000 ( 14992 PWs)   bands (ev):

   -45.6762  -4.3284  -4.1657  -4.1405  -4.0480  -3.7492  -3.6927  -3.6311
    -3.6036  -3.2502  -3.1821  -2.8850  -2.8537  -2.8518  -2.7550  -2.2714
    -2.1394  -1.9275  -1.8970  -1.8538  -1.5640  -1.3855  -1.3660  -1.2760
    -1.2635  -1.1632  -1.1219  -1.0426  -0.9154  -0.8907  -0.8625   1.5112
     1.6005   2.0576   2.2671   2.8895   3.4949   4.7149   4.8159   6.1191
     6.1904   8.3867

          k =-0.5000 0.0884 0.0000 ( 14998 PWs)   bands (ev):

   -45.6762  -4.2585  -4.1271  -4.0579  -3.9930  -3.7937  -3.7455  -3.5965
    -3.4928  -3.3558  -3.2306  -2.9693  -2.7625  -2.7378  -2.6538  -2.2298
    -2.0543  -1.9948  -1.8957  -1.8886  -1.7277  -1.5258  -1.3853  -1.2983
    -1.2763  -1.2199  -1.1314  -1.0525  -0.9990  -0.9590  -0.8495   1.5618
     1.6685   2.2185   2.4606   3.1618   3.7721   4.8843   4.9699   6.2110
     6.3360   8.4696

          k =-0.5000 0.1768 0.0000 ( 15026 PWs)   bands (ev):

   -45.6762  -4.0728  -4.0479  -3.9209  -3.8850  -3.8079  -3.7858  -3.5122
    -3.4030  -3.2923  -3.1624  -3.0138  -2.7405  -2.6471  -2.5231  -2.3605
    -2.1167  -2.0912  -1.9566  -1.9277  -1.8727  -1.6536  -1.5464  -1.4610
    -1.3901  -1.3410  -1.1730  -1.1022  -0.9315  -0.9311  -0.8610   1.7109
     1.8597   2.6428   2.9503   3.7958   4.4462   5.3727   5.4403   6.3998
     6.7482   7.4113

          k =-0.5000 0.2652 0.0000 ( 15032 PWs)   bands (ev):

   -45.6762  -4.1265  -4.0111  -3.8339  -3.7274  -3.5675  -3.5463  -3.4517
    -3.2260  -3.0951  -3.0655  -3.0147  -2.8433  -2.6828  -2.6104  -2.5045
    -2.4189  -2.2937  -2.1587  -2.1454  -1.9367  -1.6731  -1.5668  -1.5280
    -1.4298  -1.2838  -1.0717  -1.0634  -0.9364  -0.9320  -0.8734   1.9237
     2.1304   3.1773   3.5834   4.5395   5.2090   5.8954   6.0327   6.1968
     6.2137   6.4694

          k =-0.5000-0.3536 0.0000 ( 15032 PWs)   bands (ev):

   -45.6762  -4.1690  -4.0668  -3.6727  -3.5630  -3.5538  -3.4178  -3.2396
    -3.1387  -3.0902  -3.0032  -2.9288  -2.9017  -2.8149  -2.7877  -2.7474
    -2.5266  -2.2950  -2.2844  -2.1100  -1.9713  -1.8067  -1.6209  -1.4095
    -1.3715  -1.3523  -1.0050  -1.0033  -0.9529  -0.9424  -0.8666   2.0457
     2.2914   3.4804   3.9970   5.0468   5.3213   5.6251   5.7429   5.9334
     6.0718   6.6881

     the Fermi energy is     1.9111 ev

!    total energy              =    -520.51293803 Ry
     estimated scf accuracy    <       0.00000008 Ry
     smearing contrib. (-TS)   =      -0.00044757 Ry
     internal energy E=F+TS    =    -520.51249046 Ry

     The total energy is F=E-TS. E is the sum of the following terms:
     one-electron contribution =   -5306.04605292 Ry
     hartree contribution      =    2699.40267657 Ry
     xc contribution           =    -137.53833097 Ry
     ewald contribution        =    2223.83708542 Ry
     DFT-D3 Dispersion         =      -0.16786856 Ry

     convergence has been achieved in   8 iterations

     negative rho (up, down):  1.182E-05 0.000E+00

     Forces acting on atoms (cartesian axes, Ry/au):

     atom    1 type  2   force =    -0.00000216    0.00000022   -0.00350069
     atom    2 type  2   force =     0.00000041    0.00000190   -0.05484124
     atom    3 type  2   force =     0.00000047    0.00000009    0.00513909
     atom    4 type  2   force =     0.00000029   -0.00000001   -0.00938738
     atom    5 type  2   force =     0.00000004   -0.00000088    0.00675945
     atom    6 type  2   force =     0.00000105   -0.00000085   -0.00688841
     atom    7 type  1   force =    -0.00000011   -0.00000047    0.06271919
     The non-local contrib.  to forces
     atom    1 type  2   force =    -0.00000220    0.00000137    0.01042616
     atom    2 type  2   force =    -0.00000076    0.00000217    0.14874533
     atom    3 type  2   force =    -0.00000056    0.00000088   -0.02013080
     atom    4 type  2   force =     0.00000039    0.00000048    0.01850168
     atom    5 type  2   force =     0.00000008   -0.00000004   -0.13052901
     atom    6 type  2   force =     0.00000107   -0.00000077   -0.00622092
     atom    7 type  1   force =    -0.00000028    0.00000020    0.07282931
     The ionic contribution  to forces
     atom    1 type  2   force =     0.00000611    0.00000447   67.83599373
     atom    2 type  2   force =    -0.00000130   -0.00000497  105.57036374
     atom    3 type  2   force =     0.00000528    0.00000380  -29.38194193
     atom    4 type  2   force =    -0.00000764   -0.00000164   17.19948611
     atom    5 type  2   force =     0.00000019   -0.00000484 -118.25947832
     atom    6 type  2   force =    -0.00000223    0.00000397  -78.32910683
     atom    7 type  1   force =    -0.00000041   -0.00000079   35.36468351
     The local contribution  to forces
     atom    1 type  2   force =    -0.00000577   -0.00000335  -67.84636326
     atom    2 type  2   force =     0.00000104    0.00000455 -105.77476154
     atom    3 type  2   force =    -0.00000506   -0.00000245   29.40449195
     atom    4 type  2   force =     0.00000804    0.00000035  -17.22592643
     atom    5 type  2   force =    -0.00000029    0.00000427  118.38655560
     atom    6 type  2   force =     0.00000210   -0.00000384   78.32053655
     atom    7 type  1   force =     0.00000044    0.00000058  -35.37227172
     The core correction contribution to forces
     atom    1 type  2   force =     0.00000000    0.00000002   -0.00100344
     atom    2 type  2   force =    -0.00000003    0.00000000    0.00606193
     atom    3 type  2   force =    -0.00000003    0.00000005   -0.00021780
     atom    4 type  2   force =     0.00000003   -0.00000003    0.00092580
     atom    5 type  2   force =    -0.00000000    0.00000000    0.00610029
     atom    6 type  2   force =    -0.00000001    0.00000001    0.00262967
     atom    7 type  1   force =     0.00000000    0.00000000    0.00000000
     The Hubbard contrib.    to forces
     atom    1 type  2   force =     0.00000000    0.00000000    0.00000000
     atom    2 type  2   force =     0.00000000    0.00000000    0.00000000
     atom    3 type  2   force =     0.00000000    0.00000000    0.00000000
     atom    4 type  2   force =     0.00000000    0.00000000    0.00000000
     atom    5 type  2   force =     0.00000000    0.00000000    0.00000000
     atom    6 type  2   force =     0.00000000    0.00000000    0.00000000
     atom    7 type  1   force =     0.00000000    0.00000000    0.00000000
     The SCF correction term to forces
     atom    1 type  2   force =    -0.00000045   -0.00000158    0.00033528
     atom    2 type  2   force =     0.00000129    0.00000083   -0.00035708
     atom    3 type  2   force =     0.00000068   -0.00000149    0.00009314
     atom    4 type  2   force =    -0.00000072    0.00000152   -0.00057227
     atom    5 type  2   force =    -0.00000010    0.00000042   -0.00000732
     atom    6 type  2   force =    -0.00000004    0.00000048    0.00003387
     atom    7 type  1   force =    -0.00000003    0.00000023    0.00008718

     DFT-D3 dispersion contribution to forces:
     atom    1 type  2   force =    -0.00000002    0.00000000   -0.00289029
     atom    2 type  2   force =     0.00000000    0.00000001   -0.00489474
     atom    3 type  2   force =    -0.00000001   -0.00000001    0.00284341
     atom    4 type  2   force =     0.00000002   -0.00000000   -0.00180339
     atom    5 type  2   force =     0.00000000    0.00000001    0.00411709
     atom    6 type  2   force =     0.00000001   -0.00000000    0.00523814
     atom    7 type  1   force =     0.00000000   -0.00000000   -0.00261022

     Total force =     0.084624     Total SCF correction =     0.000765


     Computing stress (Cartesian axis) and pressure


     negative rho (up, down):  1.182E-05 0.000E+00
          total   stress  (Ry/bohr**3)                   (kbar)     P=       -7.53
  -0.00009651   0.00000000  -0.00000000          -14.20        0.00       -0.00
   0.00000000  -0.00012326  -0.00000000            0.00      -18.13       -0.00
  -0.00000000  -0.00000000   0.00006614           -0.00       -0.00        9.73

     Energy error            =      1.4E-02 Ry
     Gradient error          =      6.3E-02 Ry/Bohr

     number of scf cycles    =   2
     number of bfgs steps    =   1

     energy             old  =    -520.4985768459 Ry
     energy             new  =    -520.5129380301 Ry

     CASE: energy            _new < energy            _old

     new trust radius        =       0.1039166187 bohr
     new conv_thr            =       0.0000006272 Ry


ATOMIC_POSITIONS (angstrom)
Ag            2.1766575152        3.0782682054       15.8455976231
Ag            0.7255504405        1.0260922957       17.1152712125
Ag            2.1766629950        3.0782669508       12.9099135903
Ag            0.7255547010        1.0260892468       14.3420906128
Ag            2.1766644475        3.0782670921       10.0097281179
Ag            0.7255559372        1.0260881887       11.4409813687
Li            0.7255494245        1.0260897272       19.3177432699



     Writing config-only to output data dir ./Ag_mp-124_110_ontop_0/Ag_mp-124_110_ontop_0.save/
     NEW-OLD atomic charge density approx. for the potential

     negative rho (up, down):  1.447E-05 0.000E+00

     total cpu time spent up to now is       35.1 secs

     per-process dynamical memory:   189.1 Mb

     Self-consistent Calculation

     iteration #  1     ecut=    55.00 Ry     beta= 0.30
     Davidson diagonalization with overlap
     ethr =  1.00E-06,  avg # of iterations =  8.4

     negative rho (up, down):  1.294E-05 0.000E+00

     total cpu time spent up to now is       36.7 secs

     total energy              =    -520.52178717 Ry
     estimated scf accuracy    <       0.00100816 Ry

     iteration #  2     ecut=    55.00 Ry     beta= 0.30
     Davidson diagonalization with overlap
     ethr =  1.46E-06,  avg # of iterations =  5.8

     negative rho (up, down):  2.694E-05 0.000E+00

     total cpu time spent up to now is       37.4 secs

     total energy              =    -520.52115253 Ry
     estimated scf accuracy    <       0.02160536 Ry

     iteration #  3     ecut=    55.00 Ry     beta= 0.30
     Davidson diagonalization with overlap
     ethr =  1.46E-06,  avg # of iterations =  5.1

     negative rho (up, down):  2.171E-05 0.000E+00

     total cpu time spent up to now is       38.0 secs

     total energy              =    -520.52198817 Ry
     estimated scf accuracy    <       0.00084753 Ry

     iteration #  4     ecut=    55.00 Ry     beta= 0.30
     Davidson diagonalization with overlap
     ethr =  1.23E-06,  avg # of iterations =  1.1

     negative rho (up, down):  2.331E-05 0.000E+00

     total cpu time spent up to now is       38.4 secs

     total energy              =    -520.52200880 Ry
     estimated scf accuracy    <       0.00012636 Ry

     iteration #  5     ecut=    55.00 Ry     beta= 0.30
     Davidson diagonalization with overlap
     ethr =  1.83E-07,  avg # of iterations =  1.4

     negative rho (up, down):  1.894E-05 0.000E+00

     total cpu time spent up to now is       38.8 secs

     total energy              =    -520.52202071 Ry
     estimated scf accuracy    <       0.00008451 Ry

     iteration #  6     ecut=    55.00 Ry     beta= 0.30
     Davidson diagonalization with overlap
     ethr =  1.22E-07,  avg # of iterations =  1.1

     negative rho (up, down):  1.250E-05 0.000E+00

     total cpu time spent up to now is       39.3 secs

     total energy              =    -520.52202753 Ry
     estimated scf accuracy    <       0.00000713 Ry

     iteration #  7     ecut=    55.00 Ry     beta= 0.30
     Davidson diagonalization with overlap
     ethr =  1.03E-08,  avg # of iterations =  1.9

     negative rho (up, down):  1.330E-05 0.000E+00

     total cpu time spent up to now is       39.7 secs

     total energy              =    -520.52202851 Ry
     estimated scf accuracy    <       0.00000168 Ry

     iteration #  8     ecut=    55.00 Ry     beta= 0.30
     Davidson diagonalization with overlap
     ethr =  2.43E-09,  avg # of iterations =  2.9

     negative rho (up, down):  1.158E-05 0.000E+00

     total cpu time spent up to now is       40.2 secs

     End of self-consistent calculation

          k = 0.0000 0.0000 0.0000 ( 15163 PWs)   bands (ev):

   -45.7162  -5.3768  -4.3805  -4.2495  -4.0261  -3.9241  -3.5074  -3.4627
    -3.2485  -3.1663  -3.0259  -2.8452  -2.8010  -2.7457  -2.6450  -2.6264
    -2.4764  -2.4509  -2.2982  -2.2642  -2.0346  -1.9658  -1.9509  -1.9189
    -1.8656  -1.7892  -1.6118  -1.4649  -1.3931  -1.1489  -1.1386  -1.0095
    -0.8303  -0.7811   0.6524   1.6987   3.4151   4.1997   4.8851   5.6256
     5.7684   5.8333

          k = 0.0000 0.0884 0.0000 ( 15115 PWs)   bands (ev):

   -45.7161  -5.2312  -4.3326  -4.2072  -3.9885  -3.9108  -3.6746  -3.5102
    -3.3133  -3.0845  -2.9165  -2.8243  -2.7730  -2.7235  -2.6183  -2.5327
    -2.5098  -2.3639  -2.2653  -2.2168  -2.1933  -1.9650  -1.9324  -1.8585
    -1.8090  -1.6948  -1.6229  -1.5557  -1.2495  -1.2283  -1.1924  -0.9681
    -0.8868  -0.7531   0.7364   1.8085   3.2097   3.4982   4.7006   5.0197
     5.6965   5.8950

          k = 0.0000 0.1768 0.0000 ( 15114 PWs)   bands (ev):

   -45.7160  -4.8288  -4.2779  -4.0763  -3.9633  -3.8725  -3.8561  -3.5435
    -3.2266  -3.0851  -2.9249  -2.7268  -2.7012  -2.6514  -2.5713  -2.5497
    -2.4590  -2.3644  -2.2464  -2.2351  -2.0224  -2.0196  -1.8331  -1.7444
    -1.6923  -1.6099  -1.5722  -1.4444  -1.3903  -1.2590  -1.1053  -1.0076
    -0.9381  -0.5922   1.0055   1.4510   2.2020   2.9273   3.6492   4.3830
     5.1921   5.6323

          k = 0.0000 0.2652 0.0000 ( 15152 PWs)   bands (ev):

   -45.7161  -4.3628  -4.2695  -4.1059  -3.9113  -3.8528  -3.6781  -3.5035
    -3.1905  -3.0313  -2.8559  -2.7850  -2.7106  -2.6731  -2.6220  -2.4771
    -2.4531  -2.3223  -2.3076  -2.1196  -2.0545  -2.0207  -1.7682  -1.6793
    -1.4857  -1.4407  -1.4121  -1.3718  -1.2641  -1.1925  -1.1142  -1.0084
    -0.9582  -0.0944  -0.0176   1.1509   1.6462   2.6125   2.8032   3.6465
     4.1987   6.0204

          k = 0.0000-0.3536 0.0000 ( 15118 PWs)   bands (ev):

   -45.7160  -4.3399  -4.2048  -3.9760  -3.9432  -3.7771  -3.5857  -3.4207
    -3.2379  -2.9253  -2.8235  -2.8086  -2.7754  -2.7016  -2.6631  -2.4155
    -2.4046  -2.3528  -2.2479  -2.1840  -2.1153  -2.0326  -1.8341  -1.4931
    -1.4102  -1.3128  -1.2883  -1.2525  -1.1807  -1.1791  -1.1020  -1.0085
    -0.9718  -0.3097  -0.2819   1.1381   1.3367   2.0646   3.0340   3.4938
     3.5272   6.4284

          k = 0.1250-0.0000 0.0000 ( 15077 PWs)   bands (ev):

   -45.7144  -5.0743  -4.1936  -4.0277  -3.9031  -3.7355  -3.4355  -3.3940
    -3.2366  -3.2354  -3.1729  -2.9872  -2.8887  -2.7520  -2.7458  -2.6113
    -2.5554  -2.4195  -2.4087  -2.3110  -2.0812  -1.9190  -1.8095  -1.7857
    -1.7625  -1.6515  -1.5577  -1.4835  -1.3785  -1.2607  -1.2465  -1.0183
    -0.8583  -0.6208   0.8916   1.9738   3.7191   4.8847   5.1569   5.9097
     6.0457   6.2772

          k = 0.1250 0.0884 0.0000 ( 15111 PWs)   bands (ev):

   -45.7145  -4.9383  -4.1373  -3.9856  -3.8786  -3.6999  -3.5857  -3.4046
    -3.2843  -3.1942  -3.0812  -2.9116  -2.8075  -2.7483  -2.6964  -2.5185
    -2.5118  -2.4905  -2.3688  -2.3075  -2.1552  -2.0588  -1.8696  -1.8108
    -1.7095  -1.6460  -1.5370  -1.5078  -1.3053  -1.2308  -1.1894  -1.0531
    -0.9400  -0.5206   1.0071   2.0989   3.8113   3.8312   5.0925   5.3056
     6.0102   6.1779

          k = 0.1250 0.1768 0.0000 ( 15135 PWs)   bands (ev):

   -45.7146  -4.5662  -4.0730  -3.8422  -3.8046  -3.7825  -3.6277  -3.3944
    -3.2257  -3.1478  -2.9987  -2.8407  -2.7578  -2.6756  -2.5723  -2.5078
    -2.4367  -2.4114  -2.3780  -2.2906  -2.2007  -2.0713  -1.9781  -1.9663
    -1.7372  -1.6646  -1.5291  -1.4031  -1.2312  -1.2099  -1.1914  -1.0613
    -1.0492  -0.1423   1.3574   2.0149   2.5500   3.3232   4.0521   4.6980
     5.5216   5.8867

          k = 0.1250 0.2652 0.0000 ( 15153 PWs)   bands (ev):

   -45.7146  -4.1563  -4.0611  -3.8993  -3.6497  -3.6307  -3.5854  -3.3677
    -3.1673  -3.0279  -2.9157  -2.8502  -2.7098  -2.6761  -2.6052  -2.5405
    -2.4759  -2.4345  -2.3571  -2.1576  -2.1442  -2.1208  -1.9974  -1.8237
    -1.7337  -1.6160  -1.5260  -1.4873  -1.3108  -1.2607  -1.1456  -1.1069
    -0.6572   0.4867   0.5530   1.6458   2.0574   3.0510   3.1404   4.0586
     4.4993   6.2692

          k = 0.1250-0.3536 0.0000 ( 15168 PWs)   bands (ev):

   -45.7146  -4.1402  -4.0005  -3.7678  -3.7114  -3.5171  -3.4582  -3.3351
    -3.1281  -2.9890  -2.8856  -2.7830  -2.7592  -2.6964  -2.6748  -2.6409
    -2.4980  -2.4571  -2.3140  -2.1994  -2.1175  -2.0655  -1.9920  -1.7469
    -1.6180  -1.5833  -1.5228  -1.4325  -1.4099  -1.2754  -1.2046  -0.7197
    -0.6719   0.2596   0.2878   1.7171   1.7603   2.6279   3.3042   3.7828
     3.9722   6.6832

          k = 0.1250-0.2652 0.0000 ( 15153 PWs)   bands (ev):

   -45.7146  -4.1563  -4.0611  -3.8993  -3.6497  -3.6307  -3.5854  -3.3677
    -3.1673  -3.0279  -2.9157  -2.8502  -2.7098  -2.6761  -2.6052  -2.5405
    -2.4759  -2.4345  -2.3571  -2.1576  -2.1442  -2.1208  -1.9974  -1.8237
    -1.7337  -1.6160  -1.5260  -1.4873  -1.3108  -1.2607  -1.1456  -1.1069
    -0.6572   0.4867   0.5530   1.6458   2.0574   3.0510   3.1404   4.0586
     4.4993   6.2692

          k = 0.1250-0.1768 0.0000 ( 15135 PWs)   bands (ev):

   -45.7146  -4.5662  -4.0730  -3.8422  -3.8046  -3.7825  -3.6277  -3.3944
    -3.2257  -3.1478  -2.9987  -2.8407  -2.7578  -2.6756  -2.5723  -2.5078
    -2.4367  -2.4114  -2.3780  -2.2906  -2.2007  -2.0713  -1.9781  -1.9663
    -1.7372  -1.6646  -1.5291  -1.4031  -1.2312  -1.2099  -1.1914  -1.0613
    -1.0492  -0.1423   1.3574   2.0149   2.5500   3.3232   4.0521   4.6980
     5.5216   5.8868

          k = 0.1250-0.0884 0.0000 ( 15111 PWs)   bands (ev):

   -45.7145  -4.9383  -4.1373  -3.9856  -3.8786  -3.6999  -3.5857  -3.4046
    -3.2843  -3.1942  -3.0812  -2.9116  -2.8075  -2.7483  -2.6964  -2.5185
    -2.5118  -2.4905  -2.3688  -2.3075  -2.1552  -2.0588  -1.8696  -1.8108
    -1.7095  -1.6460  -1.5370  -1.5078  -1.3053  -1.2308  -1.1894  -1.0531
    -0.9400  -0.5206   1.0071   2.0989   3.8113   3.8312   5.0926   5.3056
     6.0102   6.1779

          k = 0.2500-0.0000 0.0000 ( 15101 PWs)   bands (ev):

   -45.7109  -4.3586  -3.9932  -3.7836  -3.7721  -3.7428  -3.6270  -3.5230
    -3.3469  -3.3234  -3.1843  -3.0600  -2.9184  -2.7698  -2.6607  -2.5394
    -2.4201  -2.2111  -2.0476  -2.0422  -1.9071  -1.8362  -1.7623  -1.7234
    -1.6559  -1.5090  -1.4517  -1.4462  -1.3407  -1.2649  -1.2251  -0.8991
    -0.8622  -0.0368   1.5871   2.7623   4.5263   5.9269   6.5209   6.6903
     6.8350   7.4376

          k = 0.2500 0.0884 0.0000 ( 15103 PWs)   bands (ev):

   -45.7109  -4.2883  -3.9536  -3.7712  -3.7432  -3.6609  -3.5373  -3.4973
    -3.3282  -3.2489  -3.1723  -3.0302  -2.8790  -2.7602  -2.5982  -2.5539
    -2.4273  -2.3267  -2.2093  -2.0612  -1.9646  -1.8721  -1.7986  -1.7605
    -1.6533  -1.5665  -1.5113  -1.4043  -1.3419  -1.1868  -1.1182  -0.9631
    -0.9226   0.2035   1.7520   2.9176   4.6525   5.2008   6.0327   6.1688
     6.8436   6.9608

          k = 0.2500 0.1768 0.0000 ( 15121 PWs)   bands (ev):

   -45.7109  -4.1196  -3.8736  -3.7017  -3.6601  -3.4685  -3.4093  -3.3147
    -3.2227  -3.1441  -3.0981  -2.9890  -2.8204  -2.7434  -2.6612  -2.5338
    -2.4693  -2.3989  -2.2863  -2.1944  -1.9947  -1.9677  -1.9000  -1.8896
    -1.7716  -1.6936  -1.5428  -1.5001  -1.3172  -1.1824  -1.0691  -1.0585
    -0.6084   0.7972   2.2023   3.1510   3.5133   4.2610   5.1253   5.5195
     6.4525   6.6257

          k = 0.2500 0.2652 0.0000 ( 15099 PWs)   bands (ev):

   -45.7109  -3.9482  -3.7709  -3.6422  -3.5700  -3.2978  -3.2480  -3.1553
    -3.1125  -3.0357  -3.0221  -2.9638  -2.8028  -2.6816  -2.6733  -2.6047
    -2.5032  -2.3927  -2.3127  -2.2500  -2.0931  -2.0457  -2.0077  -1.9484
    -1.8977  -1.7451  -1.6907  -1.5870  -1.2929  -1.2344  -1.1760  -0.8738
     0.1697   1.4975   1.6117   2.6945   2.9581   3.8466   4.2865   5.1352
     5.4713   6.9755

          k = 0.2500-0.3536 0.0000 ( 15096 PWs)   bands (ev):

   -45.7108  -3.8700  -3.7037  -3.6424  -3.4934  -3.3191  -3.2041  -3.0933
    -3.0811  -3.0197  -3.0155  -2.8883  -2.7179  -2.6639  -2.5945  -2.5709
    -2.5124  -2.4233  -2.3058  -2.2635  -2.2070  -2.1234  -2.0494  -2.0093
    -1.9755  -1.7617  -1.7489  -1.4642  -1.4563  -1.3295  -1.2260   0.0534
     0.1573   1.1629   1.2953   2.6643   2.8323   3.7833   4.0676   4.7586
     5.2144   7.4530

          k = 0.2500-0.2652 0.0000 ( 15099 PWs)   bands (ev):

   -45.7109  -3.9482  -3.7709  -3.6422  -3.5700  -3.2978  -3.2480  -3.1553
    -3.1125  -3.0357  -3.0221  -2.9638  -2.8028  -2.6816  -2.6733  -2.6047
    -2.5032  -2.3927  -2.3127  -2.2500  -2.0931  -2.0457  -2.0077  -1.9484
    -1.8977  -1.7451  -1.6907  -1.5870  -1.2929  -1.2344  -1.1760  -0.8738
     0.1697   1.4975   1.6117   2.6945   2.9581   3.8466   4.2865   5.1352
     5.4713   6.9755

          k = 0.2500-0.1768 0.0000 ( 15121 PWs)   bands (ev):

   -45.7109  -4.1196  -3.8736  -3.7017  -3.6601  -3.4685  -3.4093  -3.3147
    -3.2227  -3.1441  -3.0981  -2.9890  -2.8204  -2.7434  -2.6612  -2.5338
    -2.4693  -2.3989  -2.2863  -2.1944  -1.9947  -1.9677  -1.9000  -1.8896
    -1.7716  -1.6936  -1.5428  -1.5001  -1.3172  -1.1824  -1.0691  -1.0585
    -0.6084   0.7972   2.2023   3.1510   3.5133   4.2610   5.1253   5.5195
     6.4526   6.6257

          k = 0.2500-0.0884 0.0000 ( 15103 PWs)   bands (ev):

   -45.7109  -4.2883  -3.9536  -3.7712  -3.7432  -3.6609  -3.5373  -3.4973
    -3.3282  -3.2489  -3.1723  -3.0302  -2.8790  -2.7602  -2.5982  -2.5539
    -2.4273  -2.3267  -2.2093  -2.0612  -1.9646  -1.8721  -1.7986  -1.7605
    -1.6533  -1.5665  -1.5113  -1.4043  -1.3419  -1.1868  -1.1182  -0.9631
    -0.9226   0.2035   1.7520   2.9176   4.6525   5.2008   6.0326   6.1687
     6.8436   6.9607

          k = 0.3750-0.0000 0.0000 ( 15069 PWs)   bands (ev):

   -45.7072  -4.2531  -4.0906  -4.0459  -3.9507  -3.8199  -3.6151  -3.5890
    -3.5179  -3.3640  -3.0942  -3.0694  -2.8272  -2.7857  -2.7771  -2.3830
    -2.2001  -1.9168  -1.9137  -1.8657  -1.6726  -1.6490  -1.4448  -1.3548
    -1.3227  -1.2628  -1.1961  -1.1395  -1.1088  -0.9504  -0.8376  -0.4955
    -0.1408   1.2338   2.6510   3.9155   4.3783   4.9786   5.7747   6.3729
     6.7893   7.6453

          k = 0.3750 0.0884 0.0000 ( 15052 PWs)   bands (ev):

   -45.7072  -4.1899  -4.0540  -3.9823  -3.9100  -3.8211  -3.6255  -3.5337
    -3.4864  -3.3789  -3.1631  -2.9752  -2.8364  -2.6989  -2.6585  -2.3331
    -2.1854  -2.0804  -1.9581  -1.8704  -1.8187  -1.6181  -1.5317  -1.4954
    -1.3656  -1.2589  -1.2001  -1.1252  -1.1155  -0.9973  -0.9356  -0.5033
     0.0683   1.5114   2.8475   4.1171   4.4461   5.1344   5.9017   6.4732
     6.9669   7.0895

          k = 0.3750 0.1768 0.0000 ( 15049 PWs)   bands (ev):

   -45.7071  -4.0437  -4.0222  -3.8552  -3.8202  -3.6991  -3.6279  -3.4293
    -3.4013  -3.2459  -3.0903  -2.9736  -2.7704  -2.6322  -2.5212  -2.4551
    -2.3010  -2.1440  -2.0767  -1.9885  -1.9652  -1.7719  -1.6687  -1.5574
    -1.3944  -1.3334  -1.2438  -1.2209  -1.1154  -1.0654  -1.0323  -0.4393
     0.6428   2.1406   3.3439   4.1379   4.6355   5.1414   5.9054   6.1865
     6.4880   6.6780

          k = 0.3750 0.2652 0.0000 ( 15057 PWs)   bands (ev):

   -45.7071  -4.0911  -3.9009  -3.7859  -3.5899  -3.5638  -3.4029  -3.3008
    -3.2075  -3.0980  -2.9865  -2.9699  -2.8190  -2.7487  -2.5981  -2.5197
    -2.4844  -2.4050  -2.2784  -2.0974  -1.9538  -1.7347  -1.6879  -1.6372
    -1.5207  -1.3917  -1.3464  -1.2197  -1.1614  -1.1260  -1.0816   0.1099
     1.4454   2.6371   2.9298   4.0614   4.1138   5.0888   5.5277   6.2992
     6.6586   6.8869

          k = 0.3750-0.3536 0.0000 ( 15056 PWs)   bands (ev):

   -45.7071  -4.0971  -3.9672  -3.5829  -3.4868  -3.4004  -3.3253  -3.2290
    -3.1691  -2.9757  -2.9737  -2.9539  -2.9493  -2.7770  -2.7763  -2.6670
    -2.5111  -2.3776  -2.3519  -2.1373  -1.9541  -1.8176  -1.6827  -1.6532
    -1.4884  -1.3950  -1.3397  -1.3089  -1.2294  -1.1714  -1.0956   1.1201
     1.2935   2.3944   2.6655   3.8748   4.2830   4.9527   5.3250   6.3468
     6.9290   7.1182

          k = 0.3750-0.2652 0.0000 ( 15057 PWs)   bands (ev):

   -45.7071  -4.0911  -3.9009  -3.7859  -3.5899  -3.5638  -3.4029  -3.3008
    -3.2075  -3.0980  -2.9865  -2.9699  -2.8190  -2.7487  -2.5981  -2.5197
    -2.4844  -2.4050  -2.2784  -2.0974  -1.9538  -1.7347  -1.6879  -1.6372
    -1.5207  -1.3917  -1.3464  -1.2197  -1.1614  -1.1260  -1.0816   0.1099
     1.4454   2.6371   2.9298   4.0614   4.1138   5.0888   5.5277   6.2992
     6.6586   6.8869

          k = 0.3750-0.1768 0.0000 ( 15049 PWs)   bands (ev):

   -45.7071  -4.0437  -4.0222  -3.8552  -3.8202  -3.6991  -3.6279  -3.4293
    -3.4013  -3.2459  -3.0903  -2.9736  -2.7704  -2.6322  -2.5212  -2.4551
    -2.3010  -2.1440  -2.0767  -1.9885  -1.9652  -1.7719  -1.6687  -1.5574
    -1.3944  -1.3334  -1.2438  -1.2209  -1.1154  -1.0654  -1.0323  -0.4393
     0.6428   2.1406   3.3439   4.1379   4.6355   5.1414   5.9054   6.1865
     6.4880   6.6780

          k = 0.3750-0.0884 0.0000 ( 15052 PWs)   bands (ev):

   -45.7072  -4.1899  -4.0540  -3.9823  -3.9100  -3.8211  -3.6255  -3.5337
    -3.4864  -3.3789  -3.1631  -2.9752  -2.8364  -2.6989  -2.6585  -2.3331
    -2.1854  -2.0804  -1.9581  -1.8704  -1.8187  -1.6181  -1.5317  -1.4954
    -1.3656  -1.2589  -1.2001  -1.1252  -1.1155  -0.9973  -0.9356  -0.5033
     0.0683   1.5114   2.8475   4.1171   4.4461   5.1344   5.9017   6.4732
     6.9669   7.0895

          k =-0.5000 0.0000 0.0000 ( 14992 PWs)   bands (ev):

   -45.7056  -4.3614  -4.2047  -4.1644  -4.0724  -3.7521  -3.7120  -3.6509
    -3.6280  -3.2687  -3.2033  -2.9097  -2.8787  -2.8773  -2.7474  -2.2376
    -2.1104  -1.9277  -1.8547  -1.8178  -1.5667  -1.3831  -1.3790  -1.2808
    -1.2444  -1.1577  -1.1311  -1.0466  -0.9276  -0.9039  -0.8649   1.5081
     1.5879   2.0724   2.2622   2.8914   3.4834   4.5876   4.7655   6.0671
     6.1930   8.3472

          k =-0.5000 0.0884 0.0000 ( 14998 PWs)   bands (ev):

   -45.7056  -4.2908  -4.1631  -4.0852  -4.0167  -3.8139  -3.7498  -3.6174
    -3.5186  -3.3679  -3.2478  -2.9893  -2.7787  -2.7466  -2.6484  -2.2048
    -2.0267  -1.9949  -1.9013  -1.8351  -1.7359  -1.5218  -1.3959  -1.2851
    -1.2712  -1.2201  -1.1345  -1.0632  -1.0116  -0.9617  -0.8576   1.5594
     1.6557   2.2340   2.4550   3.1560   3.7606   4.7643   4.9186   6.1577
     6.3383   8.4363

          k =-0.5000 0.1768 0.0000 ( 15026 PWs)   bands (ev):

   -45.7056  -4.1018  -4.0835  -3.9468  -3.9081  -3.8324  -3.8031  -3.5230
    -3.3963  -3.3141  -3.1735  -3.0237  -2.7453  -2.6311  -2.5187  -2.3749
    -2.1259  -2.0697  -1.9483  -1.9428  -1.8672  -1.6339  -1.5623  -1.4533
    -1.3910  -1.3368  -1.1853  -1.0935  -0.9402  -0.9396  -0.8714   1.7101
     1.8460   2.6592   2.9442   3.7688   4.4321   5.2722   5.3866   6.3465
     6.7489   7.4112

          k =-0.5000 0.2652 0.0000 ( 15032 PWs)   bands (ev):

   -45.7056  -4.1600  -4.0357  -3.8546  -3.7514  -3.5874  -3.5707  -3.4407
    -3.2206  -3.1019  -3.0674  -3.0224  -2.8371  -2.7043  -2.6074  -2.5178
[...]

          k = 0.1250-0.1768 0.0000 ( 15135 PWs)   bands (ev):

   -45.8573  -4.5586  -4.0305  -3.8358  -3.8337  -3.7959  -3.5465  -3.3815
    -3.1678  -3.0611  -3.0325  -2.8324  -2.7613  -2.5888  -2.5747  -2.5216
    -2.4415  -2.3986  -2.3785  -2.2440  -2.1598  -2.0835  -2.0204  -1.9919
    -1.7259  -1.6692  -1.5285  -1.4031  -1.2500  -1.2295  -1.1765  -1.0884
    -1.0810  -0.1688   1.2517   2.0038   2.4435   3.3703   3.8854   4.6408
     5.3327   5.8401

          k = 0.1250-0.0884 0.0000 ( 15111 PWs)   bands (ev):

   -45.8572  -4.9405  -4.0971  -3.9885  -3.8697  -3.6605  -3.6242  -3.3629
    -3.2398  -3.1456  -3.0146  -2.9520  -2.7846  -2.7476  -2.6342  -2.5387
    -2.5200  -2.4997  -2.3324  -2.2123  -2.1174  -2.0871  -1.9162  -1.8132
    -1.7265  -1.6551  -1.5430  -1.5022  -1.3138  -1.2498  -1.2038  -1.0879
    -0.9636  -0.5335   0.9062   1.9801   3.6473   3.8419   5.1357   5.2909
     5.8905   6.1739

          k = 0.2500-0.0000 0.0000 ( 15101 PWs)   bands (ev):

   -45.8537  -4.3318  -3.9406  -3.8176  -3.7915  -3.7095  -3.6931  -3.5036
    -3.3078  -3.1637  -3.1524  -3.0805  -2.8886  -2.7365  -2.5808  -2.5316
    -2.3932  -2.1749  -2.0391  -2.0316  -1.9331  -1.8701  -1.7553  -1.7494
    -1.6930  -1.5056  -1.4726  -1.3964  -1.3537  -1.2957  -1.2597  -0.9286
    -0.8882  -0.0527   1.4705   2.6396   4.3514   5.8697   6.5715   6.5884
     6.8382   7.4995

          k = 0.2500 0.0884 0.0000 ( 15103 PWs)   bands (ev):

   -45.8536  -4.2587  -3.8942  -3.8030  -3.7685  -3.6199  -3.5915  -3.4842
    -3.2948  -3.1535  -3.0969  -3.0196  -2.8714  -2.7047  -2.6040  -2.4954
    -2.3887  -2.2994  -2.1849  -2.0878  -1.9789  -1.9076  -1.8261  -1.7773
    -1.6737  -1.5303  -1.5075  -1.4149  -1.3662  -1.1720  -1.1402  -0.9913
    -0.9522   0.1756   1.6302   2.7968   4.4842   5.2189   5.9825   6.2194
     6.7326   6.9460

          k = 0.2500 0.1768 0.0000 ( 15121 PWs)   bands (ev):

   -45.8537  -4.0831  -3.8020  -3.7516  -3.6583  -3.4076  -3.3927  -3.3640
    -3.2060  -3.1220  -3.0058  -2.9440  -2.8382  -2.6919  -2.6351  -2.5011
    -2.4463  -2.3513  -2.2956  -2.2236  -2.0288  -1.9742  -1.9260  -1.8900
    -1.8022  -1.6582  -1.5467  -1.4939  -1.3262  -1.1981  -1.1027  -1.0685
    -0.6008   0.7541   2.0717   3.0919   3.4549   4.2988   4.9689   5.4301
     6.3442   6.5086

          k = 0.2500 0.2652 0.0000 ( 15099 PWs)   bands (ev):

   -45.8536  -3.8939  -3.6876  -3.6553  -3.6320  -3.2241  -3.1976  -3.1082
    -3.0993  -3.0662  -3.0007  -2.9373  -2.8291  -2.7056  -2.5991  -2.5315
    -2.4788  -2.3589  -2.3068  -2.2866  -2.1110  -2.0710  -2.0279  -1.9916
    -1.8791  -1.7434  -1.6712  -1.5975  -1.3120  -1.2688  -1.1809  -0.8625
     0.1833   1.4630   1.5947   2.6618   2.8888   3.7334   4.2176   4.9976
     5.2861   6.8905

          k = 0.2500-0.3536 0.0000 ( 15096 PWs)   bands (ev):

   -45.8536  -3.7646  -3.7162  -3.6024  -3.5673  -3.2293  -3.2198  -3.0665
    -3.0510  -2.9448  -2.9353  -2.8811  -2.7951  -2.6256  -2.6175  -2.5446
    -2.5255  -2.3505  -2.3202  -2.2564  -2.1627  -2.1091  -2.0651  -2.0579
    -2.0423  -1.7510  -1.7390  -1.4801  -1.4621  -1.3601  -1.2374   0.0832
     0.1448   1.1659   1.3142   2.5615   2.8483   3.6554   3.8849   4.6135
     5.1203   7.3304

          k = 0.2500-0.2652 0.0000 ( 15099 PWs)   bands (ev):

   -45.8536  -3.8939  -3.6876  -3.6553  -3.6320  -3.2241  -3.1976  -3.1082
    -3.0993  -3.0662  -3.0007  -2.9373  -2.8291  -2.7056  -2.5991  -2.5315
    -2.4788  -2.3589  -2.3068  -2.2866  -2.1110  -2.0710  -2.0279  -1.9916
    -1.8791  -1.7434  -1.6712  -1.5975  -1.3120  -1.2688  -1.1809  -0.8625
     0.1833   1.4630   1.5947   2.6618   2.8888   3.7334   4.2176   4.9976
     5.2861   6.8905

          k = 0.2500-0.1768 0.0000 ( 15121 PWs)   bands (ev):

   -45.8537  -4.0831  -3.8020  -3.7516  -3.6583  -3.4076  -3.3927  -3.3640
    -3.2060  -3.1220  -3.0058  -2.9440  -2.8382  -2.6919  -2.6351  -2.5011
    -2.4463  -2.3513  -2.2956  -2.2236  -2.0288  -1.9742  -1.9260  -1.8900
    -1.8022  -1.6582  -1.5467  -1.4939  -1.3262  -1.1981  -1.1027  -1.0685
    -0.6008   0.7541   2.0717   3.0919   3.4549   4.2988   4.9689   5.4301
     6.3442   6.5086

          k = 0.2500-0.0884 0.0000 ( 15103 PWs)   bands (ev):

   -45.8536  -4.2587  -3.8942  -3.8030  -3.7685  -3.6199  -3.5915  -3.4842
    -3.2948  -3.1535  -3.0969  -3.0196  -2.8714  -2.7047  -2.6040  -2.4954
    -2.3887  -2.2994  -2.1849  -2.0878  -1.9789  -1.9076  -1.8261  -1.7773
    -1.6737  -1.5303  -1.5075  -1.4149  -1.3662  -1.1720  -1.1402  -0.9913
    -0.9522   0.1756   1.6302   2.7968   4.4842   5.2189   5.9825   6.2194
     6.7326   6.9460

          k = 0.3750-0.0000 0.0000 ( 15069 PWs)   bands (ev):

   -45.8500  -4.1591  -4.1087  -4.0272  -4.0097  -3.7732  -3.6206  -3.5782
    -3.4929  -3.2608  -2.9998  -2.9936  -2.8898  -2.8735  -2.7436  -2.3292
    -2.1722  -1.9075  -1.8909  -1.8471  -1.6485  -1.6341  -1.4767  -1.3528
    -1.3029  -1.2945  -1.2028  -1.1664  -1.1401  -0.9823  -0.8675  -0.5091
    -0.1280   1.2101   2.5218   3.7853   4.3566   4.9479   5.6426   6.1782
     6.7044   7.6511

          k = 0.3750 0.0884 0.0000 ( 15052 PWs)   bands (ev):

   -45.8500  -4.0940  -4.0548  -3.9706  -3.9618  -3.8162  -3.5740  -3.5443
    -3.5024  -3.2669  -3.1048  -2.9104  -2.7772  -2.7428  -2.6980  -2.3082
    -2.1902  -2.0628  -1.9184  -1.8588  -1.7979  -1.5678  -1.5366  -1.5151
    -1.3931  -1.2918  -1.2158  -1.1411  -1.1352  -1.0213  -0.9629  -0.5129
     0.0904   1.4796   2.7107   3.9899   4.4326   5.1198   5.7661   6.2754
     6.8797   7.0948

          k = 0.3750 0.1768 0.0000 ( 15049 PWs)   bands (ev):

   -45.8499  -4.0060  -3.9293  -3.9070  -3.7980  -3.7107  -3.6853  -3.3740
    -3.3346  -3.2135  -3.0720  -2.8437  -2.7355  -2.5865  -2.5701  -2.4479
    -2.3486  -2.1771  -2.0963  -1.9549  -1.8998  -1.7286  -1.6575  -1.5986
    -1.4086  -1.3410  -1.2643  -1.2277  -1.1431  -1.0747  -1.0735  -0.4299
     0.6730   2.0932   3.2062   4.1236   4.5230   5.1911   5.8787   6.0112
     6.4480   6.5108

          k = 0.3750 0.2652 0.0000 ( 15057 PWs)   bands (ev):

   -45.8499  -4.0610  -3.9223  -3.7024  -3.6356  -3.5353  -3.4203  -3.2023
    -3.1525  -3.1056  -2.9840  -2.8496  -2.7948  -2.6755  -2.6165  -2.5422
    -2.5094  -2.4276  -2.2924  -2.0612  -1.9594  -1.7337  -1.6412  -1.6256
    -1.5512  -1.4331  -1.3063  -1.2556  -1.1982  -1.1524  -1.1075   0.1339
     1.4834   2.6454   2.8685   3.9232   4.1319   4.9932   5.3844   6.2314
     6.5831   6.7626

          k = 0.3750-0.3536 0.0000 ( 15056 PWs)   bands (ev):

   -45.8499  -4.0434  -4.0194  -3.4874  -3.4663  -3.3617  -3.3515  -3.1981
    -3.1815  -2.9242  -2.9145  -2.8860  -2.8734  -2.7841  -2.7680  -2.6873
    -2.5993  -2.3430  -2.3280  -2.0996  -1.9861  -1.8177  -1.7441  -1.5466
    -1.4925  -1.3865  -1.3682  -1.3407  -1.2551  -1.2165  -1.1153   1.1858
     1.2754   2.4137   2.6898   3.7371   4.3004   4.7721   5.1542   6.2098
     6.8338   7.1617

          k = 0.3750-0.2652 0.0000 ( 15057 PWs)   bands (ev):

   -45.8499  -4.0610  -3.9223  -3.7024  -3.6356  -3.5353  -3.4203  -3.2023
    -3.1525  -3.1056  -2.9840  -2.8496  -2.7948  -2.6755  -2.6165  -2.5422
    -2.5094  -2.4276  -2.2924  -2.0612  -1.9594  -1.7337  -1.6412  -1.6256
    -1.5512  -1.4331  -1.3063  -1.2556  -1.1982  -1.1524  -1.1075   0.1339
     1.4834   2.6454   2.8685   3.9232   4.1319   4.9932   5.3844   6.2314
     6.5831   6.7626

          k = 0.3750-0.1768 0.0000 ( 15049 PWs)   bands (ev):

   -45.8499  -4.0060  -3.9293  -3.9070  -3.7980  -3.7107  -3.6853  -3.3740
    -3.3346  -3.2135  -3.0720  -2.8437  -2.7355  -2.5865  -2.5701  -2.4479
    -2.3486  -2.1771  -2.0963  -1.9549  -1.8998  -1.7286  -1.6575  -1.5986
    -1.4086  -1.3410  -1.2643  -1.2277  -1.1431  -1.0747  -1.0735  -0.4299
     0.6730   2.0932   3.2062   4.1236   4.5230   5.1911   5.8787   6.0112
     6.4480   6.5108

          k = 0.3750-0.0884 0.0000 ( 15052 PWs)   bands (ev):

   -45.8500  -4.0940  -4.0548  -3.9706  -3.9618  -3.8162  -3.5740  -3.5443
    -3.5024  -3.2669  -3.1048  -2.9104  -2.7772  -2.7428  -2.6980  -2.3082
    -2.1902  -2.0628  -1.9184  -1.8588  -1.7979  -1.5678  -1.5366  -1.5151
    -1.3931  -1.2918  -1.2158  -1.1411  -1.1352  -1.0213  -0.9629  -0.5129
     0.0904   1.4796   2.7107   3.9899   4.4326   5.1198   5.7661   6.2754
     6.8797   7.0948

          k =-0.5000 0.0000 0.0000 ( 14992 PWs)   bands (ev):

   -45.8484  -4.2660  -4.2330  -4.1455  -4.1288  -3.6824  -3.6620  -3.6440
    -3.6208  -3.0985  -3.0894  -3.0228  -2.9803  -2.8076  -2.8037  -2.1662
    -2.0647  -1.9023  -1.8924  -1.7347  -1.5908  -1.3816  -1.3715  -1.2629
    -1.2493  -1.1845  -1.1451  -1.0671  -0.9665  -0.9178  -0.9170   1.5424
     1.5686   2.1136   2.2865   2.8223   3.4617   4.2208   4.5985   5.9453
     6.2033   8.1959

          k =-0.5000 0.0884 0.0000 ( 14998 PWs)   bands (ev):

   -45.8484  -4.1916  -4.1600  -4.0933  -4.0793  -3.7622  -3.7527  -3.5650
    -3.5227  -3.2530  -3.2012  -2.9266  -2.8617  -2.6943  -2.6925  -2.1425
    -2.0208  -1.9572  -1.9450  -1.7813  -1.7335  -1.4743  -1.3849  -1.3171
    -1.2699  -1.2616  -1.1533  -1.0804  -1.0413  -0.9740  -0.8971   1.6010
     1.6370   2.2767   2.4804   3.0697   3.7408   4.4107   4.7512   6.0366
     6.3456   8.2969

          k =-0.5000 0.1768 0.0000 ( 15026 PWs)   bands (ev):

   -45.8484  -4.0133  -4.0099  -3.9651  -3.9506  -3.8643  -3.8539  -3.3923
    -3.3466  -3.2926  -3.1953  -2.8654  -2.8049  -2.5668  -2.5645  -2.2955
    -2.1807  -2.0348  -1.9757  -1.9287  -1.8919  -1.5828  -1.5383  -1.4748
    -1.4079  -1.3382  -1.2207  -1.0665  -0.9755  -0.9684  -0.9076   1.7713
     1.8300   2.7035   2.9739   3.6367   4.4032   4.9624   5.2260   6.2438
     6.7438   7.4365

          k =-0.5000 0.2652 0.0000 ( 15032 PWs)   bands (ev):

   -45.8484  -4.1088  -4.0891  -3.7460  -3.7272  -3.6429  -3.6348  -3.2744
    -3.1763  -3.1467  -3.0863  -2.8600  -2.8501  -2.6137  -2.5938  -2.5429
    -2.4839  -2.2648  -2.1694  -2.1015  -1.9836  -1.6695  -1.5725  -1.5191
    -1.4557  -1.1785  -1.1113  -1.1052  -0.9807  -0.9726  -0.9157   2.0152
     2.1038   3.2348   3.6174   4.2943   5.1191   5.7278   5.8600   6.0611
     6.1460   6.3939

          k =-0.5000-0.3536 0.0000 ( 15032 PWs)   bands (ev):

   -45.8484  -4.1594  -4.1407  -3.5527  -3.5512  -3.5507  -3.5078  -3.1865
    -3.1207  -3.0455  -2.9419  -2.9206  -2.8904  -2.7977  -2.7929  -2.7189
    -2.6336  -2.2193  -2.1976  -2.1323  -2.0243  -1.8067  -1.6973  -1.4206
    -1.3838  -1.1913  -1.0545  -1.0467  -0.9950  -0.9919  -0.9074   2.1573
     2.2662   3.5294   4.0460   4.7216   5.2875   5.5636   5.6708   5.8956
     6.0410   6.5659

     the Fermi energy is     1.8491 ev

!    total energy              =    -520.53268180 Ry
     estimated scf accuracy    <          9.5E-10 Ry
     smearing contrib. (-TS)   =      -0.00080779 Ry
     internal energy E=F+TS    =    -520.53187401 Ry

     The total energy is F=E-TS. E is the sum of the following terms:
     one-electron contribution =   -5261.08129778 Ry
     hartree contribution      =    2676.86356505 Ry
     xc contribution           =    -137.48040374 Ry
     ewald contribution        =    2201.33225581 Ry
     DFT-D3 Dispersion         =      -0.16599334 Ry

     convergence has been achieved in   8 iterations

     negative rho (up, down):  1.219E-05 0.000E+00

     Forces acting on atoms (cartesian axes, Ry/au):

     atom    1 type  2   force =     0.00000001   -0.00000020    0.00081735
     atom    2 type  2   force =     0.00000012    0.00000020    0.00079532
     atom    3 type  2   force =     0.00000016   -0.00000001   -0.00039985
     atom    4 type  2   force =    -0.00000016   -0.00000013   -0.00000046
     atom    5 type  2   force =     0.00000001    0.00000026    0.00017850
     atom    6 type  2   force =    -0.00000008   -0.00000014   -0.00075584
     atom    7 type  1   force =    -0.00000005    0.00000002   -0.00063503
     The non-local contrib.  to forces
     atom    1 type  2   force =    -0.00000003   -0.00000019    0.01356156
     atom    2 type  2   force =    -0.00000006    0.00000030    0.06266521
     atom    3 type  2   force =     0.00000006   -0.00000003   -0.02460401
     atom    4 type  2   force =    -0.00000015   -0.00000013    0.01891127
     atom    5 type  2   force =    -0.00000001    0.00000027   -0.13081684
     atom    6 type  2   force =     0.00000001   -0.00000019    0.00397705
     atom    7 type  1   force =    -0.00000006    0.00000001    0.04823977
     The ionic contribution  to forces
     atom    1 type  2   force =     0.00000202   -0.00001510   67.97836353
     atom    2 type  2   force =     0.00000225    0.00001275  106.57653780
     atom    3 type  2   force =     0.00000654    0.00000351  -28.39793778
     atom    4 type  2   force =    -0.00000612    0.00000040   17.62370058
     atom    5 type  2   force =     0.00000238    0.00000683 -117.91074456
     atom    6 type  2   force =    -0.00000576   -0.00000849  -78.81184320
     atom    7 type  1   force =    -0.00000130    0.00000010   32.94192363
     The local contribution  to forces
     atom    1 type  2   force =    -0.00000200    0.00001497  -67.98573456
     atom    2 type  2   force =    -0.00000206   -0.00001270 -106.63273672
     atom    3 type  2   force =    -0.00000648   -0.00000347   28.41858993
     atom    4 type  2   force =     0.00000599   -0.00000022  -17.64006674
     atom    5 type  2   force =    -0.00000244   -0.00000709  118.03026444
     atom    6 type  2   force =     0.00000565    0.00000862   78.80049408
     atom    7 type  1   force =     0.00000126   -0.00000009  -32.98832917
     The core correction contribution to forces
     atom    1 type  2   force =    -0.00000001    0.00000003   -0.00197253
     atom    2 type  2   force =    -0.00000002   -0.00000003   -0.00150407
     atom    3 type  2   force =    -0.00000002   -0.00000000    0.00045379
     atom    4 type  2   force =     0.00000002    0.00000001   -0.00020999
     atom    5 type  2   force =    -0.00000001   -0.00000002    0.00697066
     atom    6 type  2   force =     0.00000002    0.00000002    0.00184173
     atom    7 type  1   force =     0.00000000    0.00000000    0.00000000
     The Hubbard contrib.    to forces
     atom    1 type  2   force =     0.00000000    0.00000000    0.00000000
     atom    2 type  2   force =     0.00000000    0.00000000    0.00000000
     atom    3 type  2   force =     0.00000000    0.00000000    0.00000000
     atom    4 type  2   force =     0.00000000    0.00000000    0.00000000
     atom    5 type  2   force =     0.00000000    0.00000000    0.00000000
     atom    6 type  2   force =     0.00000000    0.00000000    0.00000000
     atom    7 type  1   force =     0.00000000    0.00000000    0.00000000
     The SCF correction term to forces
     atom    1 type  2   force =     0.00000003    0.00000009    0.00003971
     atom    2 type  2   force =     0.00000002   -0.00000010    0.00002286
     atom    3 type  2   force =     0.00000008   -0.00000001   -0.00000376
     atom    4 type  2   force =     0.00000007   -0.00000018    0.00000013
     atom    5 type  2   force =     0.00000010    0.00000029   -0.00007194
     atom    6 type  2   force =    -0.00000002   -0.00000010    0.00000957
     atom    7 type  1   force =     0.00000002    0.00000001   -0.00000476

     DFT-D3 dispersion contribution to forces:
     atom    1 type  2   force =    -0.00000001    0.00000001   -0.00344227
     atom    2 type  2   force =    -0.00000002   -0.00000001   -0.00419166
     atom    3 type  2   force =    -0.00000002   -0.00000000    0.00310008
     atom    4 type  2   force =     0.00000002    0.00000000   -0.00233761
     atom    5 type  2   force =    -0.00000000   -0.00000001    0.00457485
     atom    6 type  2   force =     0.00000002    0.00000001    0.00476302
     atom    7 type  1   force =     0.00000001   -0.00000000   -0.00246640

     Total force =     0.001571     Total SCF correction =     0.000086


     Computing stress (Cartesian axis) and pressure


     negative rho (up, down):  1.219E-05 0.000E+00
          total   stress  (Ry/bohr**3)                   (kbar)     P=      -13.18
  -0.00009991   0.00000000   0.00000000          -14.70        0.00        0.00
   0.00000000  -0.00012295   0.00000000            0.00      -18.09        0.00
   0.00000000   0.00000000  -0.00004600            0.00        0.00       -6.77

     Energy error            =      2.5E-05 Ry
     Gradient error          =      8.2E-04 Ry/Bohr

     bfgs converged in  18 scf cycles and  17 bfgs steps
     (criteria: energy <  1.0E-04 Ry, force <  1.0E-03 Ry/Bohr)

     End of BFGS Geometry Optimization

     Final energy             =    -520.5326817986 Ry

     File ./Ag_mp-124_110_ontop_0/Ag_mp-124_110_ontop_0.bfgs deleted, as requested
Begin final coordinates

ATOMIC_POSITIONS (angstrom)
Ag            2.1766604219        3.0782685546       15.7571582435
Ag            0.7255500031        1.0260887143       17.1312414861
Ag            2.1766630607        3.0782681485       12.8595293810
Ag            0.7255545441        1.0260902887       14.2586748515
Ag            2.1766652821        3.0782673119        9.9891832923
Ag            0.7255568135        1.0260900053       11.3523174461
Li            0.7255453355        1.0260886836       19.6332210946
End final coordinates



     Writing all to output data dir ./Ag_mp-124_110_ontop_0/Ag_mp-124_110_ontop_0.save/

     init_run     :      2.50s CPU      5.53s WALL (       1 calls)
     electrons    :     82.90s CPU     98.21s WALL (      18 calls)
     update_pot   :      6.53s CPU      6.87s WALL (      17 calls)
     forces       :      7.14s CPU      8.81s WALL (      18 calls)
     force_dftd3  :      1.61s CPU      2.33s WALL (      18 calls)
     stress       :     19.43s CPU     20.09s WALL (      18 calls)
     stres_dftd3  :      0.27s CPU      0.37s WALL (      18 calls)

     Called by init_run:
     wfcinit      :      0.25s CPU      0.48s WALL (       1 calls)
     potinit      :      0.73s CPU      2.33s WALL (       1 calls)
     hinit0       :      1.37s CPU      2.26s WALL (       1 calls)

     Called by electrons:
     c_bands      :     65.56s CPU     70.06s WALL (     154 calls)
     sum_band     :     10.22s CPU     11.04s WALL (     154 calls)
     v_of_rho     :      3.08s CPU     10.37s WALL (     164 calls)
     newd         :      4.67s CPU      7.45s WALL (     164 calls)
     mix_rho      :      0.29s CPU      0.42s WALL (     154 calls)
     energy_dftd3 :      0.03s CPU      0.03s WALL (      18 calls)

     Called by c_bands:
     init_us_2    :      0.56s CPU      0.60s WALL (    3105 calls)
     init_us_2:cp :      0.55s CPU      0.59s WALL (    3105 calls)
     cegterg      :     60.36s CPU     62.88s WALL (    1386 calls)

     Called by *egterg:
     cdiaghg      :     12.13s CPU     12.25s WALL (    5521 calls)
     h_psi        :     38.20s CPU     40.24s WALL (    5755 calls)
     s_psi        :      1.83s CPU      1.85s WALL (    5755 calls)
     g_psi        :      0.17s CPU      0.17s WALL (    4360 calls)

     Called by h_psi:
     h_psi:calbec :      3.10s CPU      3.48s WALL (    5755 calls)
     vloc_psi     :     33.15s CPU     34.75s WALL (    5755 calls)
     add_vuspsi   :      1.81s CPU      1.86s WALL (    5755 calls)

     General routines
     calbec       :      5.34s CPU      5.90s WALL (    7951 calls)
     fft          :      5.47s CPU     17.35s WALL (    2571 calls)
     ffts         :      0.53s CPU      0.58s WALL (     318 calls)
     fftw         :     34.28s CPU     35.87s WALL (  360446 calls)
     interpolate  :      0.75s CPU      1.66s WALL (     164 calls)

     Parallel routines

     PWSCF        :   2m 0.47s CPU   2m23.42s WALL


   This run was terminated on:   5:18:57  24Jul2025            

=------------------------------------------------------------------------------=
   JOB DONE.
=------------------------------------------------------------------------------=
