
     Program PWSCF v.7.2 starts on 24Jul2025 at  5:22:54 

     This program is part of the open-source Quantum ESPRESSO suite
     for quantum simulation of materials; please cite
         "P. Giannozzi et al., J. Phys.:Condens. Matter 21 395502 (2009);
         "P. Giannozzi et al., J. Phys.:Condens. Matter 29 465901 (2017);
         "P. Giannozzi et al., J. Chem. Phys. 152 154105 (2020);
          URL http://www.quantum-espresso.org", 
     in publications or presentations arising from this work. More details at
     http://www.quantum-espresso.org/quote

     Parallel version (MPI & OpenMP), running on     128 processor cores
     Number of MPI processes:               128
     Threads/MPI process:                     1

     MPI processes distributed on     2 nodes
     243978 MiB available memory on the printing compute node when the environment starts

     Reading input from Ag_mp-124_100_bridge_1.in

     Current dimensions of program PWSCF are:
     Max number of different atomic species (ntypx) = 10
     Max number of k-points (npk) =  40000
     Max angular momentum in pseudopotentials (lmaxx) =  4
     Message from routine iosys:
     restart disabled: needed files not found

     K-points division:     npool     =       4
     R & G space division:  proc/nbgrp/npool/nimage =      32
     Subspace diagonalization in iterative solution of the eigenvalue problem:
     a serial algorithm will be used


     Parallelization info
     --------------------
     sticks:   dense  smooth     PW     G-vecs:    dense   smooth      PW
     Min          37      16      5                10139     2936     487
     Max          38      17      6                10190     2975     521
     Sum        1201     517    161               325127    94489   16093

     Using Slab Decomposition



     bravais-lattice index     =            0
     lattice parameter (alat)  =       5.4844  a.u.
     unit-cell volume          =    1720.0396 (a.u.)^3
     number of atoms/cell      =            7
     number of atomic types    =            2
     number of electrons       =        69.00
     number of Kohn-Sham states=           42
     kinetic-energy cutoff     =      55.0000  Ry
     charge density cutoff     =     500.0000  Ry
     scf convergence threshold =      1.0E-06
     mixing beta               =       0.3000
     number of iterations used =            8  plain     mixing
     energy convergence thresh.=      1.0E-04
     force convergence thresh. =      1.0E-03
     Exchange-correlation= PBE
                           (   1   4   3   4   0   0   0)
     nstep                     =          500


     celldm(1)=   5.484398  celldm(2)=   0.000000  celldm(3)=   0.000000
     celldm(4)=   0.000000  celldm(5)=   0.000000  celldm(6)=   0.000000

     crystal axes: (cart. coord. in units of alat)
               a(1) = (   1.000000   0.000000   0.000000 )  
               a(2) = (   0.000000   1.000000   0.000000 )  
               a(3) = (   0.000000   0.000000  10.426814 )  

     reciprocal axes: (cart. coord. in units 2 pi/alat)
               b(1) = (  1.000000 -0.000000  0.000000 )  
               b(2) = (  0.000000  1.000000  0.000000 )  
               b(3) = ( -0.000000 -0.000000  0.095907 )  


     PseudoPot. # 1 for Li read from file:
     /home/ecastro/trabajo_final/pseudos/Li.pbe-s-rrkjus_psl.1.0.0.UPF
     MD5 check sum: 9f98d2529904d60b716d33989e9bc179
     Pseudo is Ultrasoft, Zval =  3.0
     Generated using &quot;atomic&quot; code by A. Dal Corso  v.6.3MaX
     Using radial grid of 1017 points,  4 beta functions with: 
                l(1) =   0
                l(2) =   0
                l(3) =   1
                l(4) =   1
     Q(r) pseudized with 0 coefficients 


     PseudoPot. # 2 for Ag read from file:
     /home/ecastro/trabajo_final/pseudos/Ag.pbe-n-rrkjus_psl.1.0.0.UPF
     MD5 check sum: 81cdf87bacf708300839c66ee23ce017
     Pseudo is Ultrasoft + core correction, Zval = 11.0
     Generated using &quot;atomic&quot; code by A. Dal Corso  v.6.2.2
     Using radial grid of 1237 points,  6 beta functions with: 
                l(1) =   0
                l(2) =   0
                l(3) =   1
                l(4) =   1
                l(5) =   2
                l(6) =   2
     Q(r) pseudized with 0 coefficients 


     atomic species   valence    mass     pseudopotential
        Li             3.00     6.94100     Li( 1.00)
        Ag            11.00   107.86820     Ag( 1.00)

     No symmetry found



   Cartesian axes

     site n.     atom                  positions (alat units)
         1           Ag  tau(   1) = (   0.7500000   0.2500000   4.1527471  )
         2           Ag  tau(   2) = (   0.2500000   0.7500000   3.4456403  )
         3           Ag  tau(   3) = (   0.7500000   0.2500000   5.5669606  )
         4           Ag  tau(   4) = (   0.2500000   0.7500000   4.8598538  )
         5           Ag  tau(   5) = (   0.7499994   0.2499989   6.9742602  )
         6           Ag  tau(   6) = (   0.2500010   0.7500043   6.2668291  )
         7           Li  tau(   7) = (   0.2499994   0.7499989   7.6633883  )

     --------------------------------------------
     DFT-D3 Dispersion Correction (no 3-body):
     --------------------------------------------
       Reference C6 values for interpolation: 

         atom   Coordination number   C6
         Li         0.000          2326.89
         Li         0.987           170.64
         Ag         0.000           853.49
         Ag         0.968           537.23

       Values used:

         atom   Coordination number  R0_AB[au]  C6      C8
         Ag         8.689            3.147    537.23  47741.54
         Ag         5.822            3.147    537.23  47741.54
         Ag         8.790            3.147    537.23  47741.54
         Ag         8.719            3.147    537.23  47741.54
         Ag         9.110            3.147    537.23  47741.54
         Ag         8.797            3.147    537.23  47741.54
         Li         6.807            3.303    170.64  12899.87

         Molecular C6 ( Ry / a.u.^6 ) =     22982.53


     number of k points=    34  Methfessel-Paxton smearing, width (Ry)=  0.0300
                       cart. coord. in units 2pi/alat
        k(    1) = (   0.0000000   0.0000000   0.0000000), wk =   0.0312500
        k(    2) = (   0.0000000   0.1250000   0.0000000), wk =   0.0625000
        k(    3) = (   0.0000000   0.2500000   0.0000000), wk =   0.0625000
        k(    4) = (   0.0000000   0.3750000   0.0000000), wk =   0.0625000
        k(    5) = (   0.0000000  -0.5000000   0.0000000), wk =   0.0312500
        k(    6) = (   0.1250000  -0.0000000   0.0000000), wk =   0.0625000
        k(    7) = (   0.1250000   0.1250000   0.0000000), wk =   0.0625000
        k(    8) = (   0.1250000   0.2500000   0.0000000), wk =   0.0625000
        k(    9) = (   0.1250000   0.3750000   0.0000000), wk =   0.0625000
        k(   10) = (   0.1250000  -0.5000000   0.0000000), wk =   0.0625000
        k(   11) = (   0.1250000  -0.3750000   0.0000000), wk =   0.0625000
        k(   12) = (   0.1250000  -0.2500000   0.0000000), wk =   0.0625000
        k(   13) = (   0.1250000  -0.1250000   0.0000000), wk =   0.0625000
        k(   14) = (   0.2500000  -0.0000000   0.0000000), wk =   0.0625000
        k(   15) = (   0.2500000   0.1250000   0.0000000), wk =   0.0625000
        k(   16) = (   0.2500000   0.2500000   0.0000000), wk =   0.0625000
        k(   17) = (   0.2500000   0.3750000   0.0000000), wk =   0.0625000
        k(   18) = (   0.2500000  -0.5000000   0.0000000), wk =   0.0625000
        k(   19) = (   0.2500000  -0.3750000   0.0000000), wk =   0.0625000
        k(   20) = (   0.2500000  -0.2500000   0.0000000), wk =   0.0625000
        k(   21) = (   0.2500000  -0.1250000   0.0000000), wk =   0.0625000
        k(   22) = (   0.3750000  -0.0000000   0.0000000), wk =   0.0625000
        k(   23) = (   0.3750000   0.1250000   0.0000000), wk =   0.0625000
        k(   24) = (   0.3750000   0.2500000   0.0000000), wk =   0.0625000
        k(   25) = (   0.3750000   0.3750000   0.0000000), wk =   0.0625000
        k(   26) = (   0.3750000  -0.5000000   0.0000000), wk =   0.0625000
        k(   27) = (   0.3750000  -0.3750000   0.0000000), wk =   0.0625000
        k(   28) = (   0.3750000  -0.2500000   0.0000000), wk =   0.0625000
        k(   29) = (   0.3750000  -0.1250000   0.0000000), wk =   0.0625000
        k(   30) = (  -0.5000000   0.0000000   0.0000000), wk =   0.0312500
        k(   31) = (  -0.5000000   0.1250000   0.0000000), wk =   0.0625000
        k(   32) = (  -0.5000000   0.2500000   0.0000000), wk =   0.0625000
        k(   33) = (  -0.5000000   0.3750000   0.0000000), wk =   0.0625000
        k(   34) = (  -0.5000000  -0.5000000   0.0000000), wk =   0.0312500

     Dense  grid:   325127 G-vectors     FFT dimensions: (  40,  40, 432)

     Smooth grid:    94489 G-vectors     FFT dimensions: (  25,  25, 270)

     Estimated max dynamical RAM per process >      20.59 MB

     Estimated total dynamical RAM >       2.34 GB
     Cannot read rho : file not found

     Initial potential from superposition of free atoms

     starting charge      68.9930, renormalised to      69.0000

     negative rho (up, down):  3.294E-05 0.000E+00
     Message from routine qexsd_readschema :
     xml data file ./Ag_mp-124_100_bridge_1/Ag_mp-124_100_bridge_1.save/data-file-sch
     Cannot read wfcs: file not found
     Starting wfcs are   59 randomized atomic wfcs

     total cpu time spent up to now is        8.6 secs

     per-process dynamical memory:   175.7 Mb

     Self-consistent Calculation

     iteration #  1     ecut=    55.00 Ry     beta= 0.30
     Davidson diagonalization with overlap
     c_bands:  2 eigenvalues not converged
     c_bands:  1 eigenvalues not converged
     c_bands:  1 eigenvalues not converged
     c_bands:  1 eigenvalues not converged
     c_bands:  1 eigenvalues not converged
     c_bands:  1 eigenvalues not converged
     ethr =  1.00E-05,  avg # of iterations = 18.1

     negative rho (up, down):  2.646E-05 0.000E+00

     total cpu time spent up to now is       13.4 secs

     total energy              =    -520.51590057 Ry
     estimated scf accuracy    <       0.33060215 Ry

     iteration #  2     ecut=    55.00 Ry     beta= 0.30
     Davidson diagonalization with overlap
     ethr =  4.79E-04,  avg # of iterations =  8.0

     negative rho (up, down):  8.389E-05 0.000E+00

     total cpu time spent up to now is       14.9 secs

     total energy              =    -519.78667888 Ry
     estimated scf accuracy    <      32.10161065 Ry

     iteration #  3     ecut=    55.00 Ry     beta= 0.30
     Davidson diagonalization with overlap
     ethr =  4.79E-04,  avg # of iterations =  7.9

     negative rho (up, down):  9.707E-05 0.000E+00

     total cpu time spent up to now is       16.0 secs

     total energy              =    -520.59900247 Ry
     estimated scf accuracy    <       0.52131134 Ry

     iteration #  4     ecut=    55.00 Ry     beta= 0.30
     Davidson diagonalization with overlap
     ethr =  4.79E-04,  avg # of iterations =  2.2

     negative rho (up, down):  6.857E-05 0.000E+00

     total cpu time spent up to now is       16.7 secs

     total energy              =    -520.61429919 Ry
     estimated scf accuracy    <       0.50745317 Ry

     iteration #  5     ecut=    55.00 Ry     beta= 0.30
     Davidson diagonalization with overlap
     ethr =  4.79E-04,  avg # of iterations =  1.2

     negative rho (up, down):  5.004E-05 0.000E+00

     total cpu time spent up to now is       17.3 secs

     total energy              =    -520.63115483 Ry
     estimated scf accuracy    <       0.02026403 Ry

     iteration #  6     ecut=    55.00 Ry     beta= 0.30
     Davidson diagonalization with overlap
     ethr =  2.94E-05,  avg # of iterations =  5.5

     negative rho (up, down):  1.098E-05 0.000E+00

     total cpu time spent up to now is       18.1 secs

     total energy              =    -520.63211078 Ry
     estimated scf accuracy    <       0.00168920 Ry

     iteration #  7     ecut=    55.00 Ry     beta= 0.30
     Davidson diagonalization with overlap
     ethr =  2.45E-06,  avg # of iterations =  8.4

     negative rho (up, down):  1.084E-05 0.000E+00

     total cpu time spent up to now is       20.3 secs

     total energy              =    -520.63235530 Ry
     estimated scf accuracy    <       0.00223035 Ry

     iteration #  8     ecut=    55.00 Ry     beta= 0.30
     Davidson diagonalization with overlap
     ethr =  2.45E-06,  avg # of iterations =  1.0

     negative rho (up, down):  1.276E-05 0.000E+00

     total cpu time spent up to now is       21.2 secs

     total energy              =    -520.63236300 Ry
     estimated scf accuracy    <       0.00035651 Ry

     iteration #  9     ecut=    55.00 Ry     beta= 0.30
     Davidson diagonalization with overlap
     ethr =  5.17E-07,  avg # of iterations =  1.1

     negative rho (up, down):  1.196E-05 0.000E+00

     total cpu time spent up to now is       21.7 secs

     total energy              =    -520.63238265 Ry
     estimated scf accuracy    <       0.00000609 Ry

     iteration # 10     ecut=    55.00 Ry     beta= 0.30
     Davidson diagonalization with overlap
     ethr =  8.82E-09,  avg # of iterations =  4.2

     negative rho (up, down):  1.102E-05 0.000E+00

     total cpu time spent up to now is       23.8 secs

     total energy              =    -520.63238394 Ry
     estimated scf accuracy    <       0.00001962 Ry

     iteration # 11     ecut=    55.00 Ry     beta= 0.30
     Davidson diagonalization with overlap
     ethr =  8.82E-09,  avg # of iterations =  1.1

     negative rho (up, down):  1.013E-05 0.000E+00

     total cpu time spent up to now is       24.1 secs

     total energy              =    -520.63238407 Ry
     estimated scf accuracy    <       0.00000457 Ry

     iteration # 12     ecut=    55.00 Ry     beta= 0.30
     Davidson diagonalization with overlap
     ethr =  6.63E-09,  avg # of iterations =  1.8

     negative rho (up, down):  9.329E-06 0.000E+00

     total cpu time spent up to now is       24.5 secs

     End of self-consistent calculation

          k = 0.0000 0.0000 0.0000 ( 11951 PWs)   bands (ev):

   -43.4770  -4.1686  -3.5495  -2.9381  -2.8202  -2.7907  -2.6704  -2.6226
    -2.3367  -2.3072  -1.9594  -1.6609  -1.4659  -1.3328  -1.3328  -1.0904
    -1.0904  -0.9271  -0.6991  -0.6991  -0.5968  -0.4660  -0.3689  -0.2652
    -0.2405  -0.2405  -0.0969  -0.0395   0.1002   0.1928   0.1928   0.2666
     0.3566   0.4960   0.4960   1.2836   2.5957   3.7710   4.6627   6.6027
     7.2310   7.7499

          k = 0.0000 0.1250 0.0000 ( 11903 PWs)   bands (ev):

   -43.4753  -3.8633  -3.2870  -2.8031  -2.6482  -2.6402  -2.5449  -2.4184
    -2.2686  -2.0735  -1.8160  -1.5836  -1.4279  -1.3468  -1.2752  -1.2206
    -1.0962  -1.0081  -0.8391  -0.8092  -0.6605  -0.5090  -0.4308  -0.3847
    -0.3446  -0.2989  -0.2335  -0.0861  -0.0363   0.0598   0.1749   0.2197
     0.3686   0.4950   0.5573   1.8044   3.0357   4.2228   5.2922   6.8851
     7.5212   8.0183

          k = 0.0000 0.2500 0.0000 ( 11877 PWs)   bands (ev):

   -43.4714  -3.1156  -2.8554  -2.6148  -2.5581  -2.4540  -2.2259  -2.1084
    -1.8784  -1.5994  -1.4403  -1.3595  -1.2041  -1.1778  -1.1730  -1.1549
    -1.1247  -1.0775  -1.0050  -0.9299  -0.8284  -0.7923  -0.6595  -0.5617
    -0.5115  -0.4009  -0.2553  -0.1761  -0.1519   0.0669   0.1618   0.2462
     0.3930   0.4139   1.3511   2.7381   3.9965   5.3348   6.6683   7.7401
     8.4000   8.6266

          k = 0.0000 0.3750 0.0000 ( 11873 PWs)   bands (ev):

   -43.4676  -2.8249  -2.8066  -2.5723  -2.5008  -2.2296  -2.0710  -1.7649
    -1.6325  -1.5533  -1.3955  -1.3608  -1.3484  -1.2930  -1.2826  -1.1321
    -1.1028  -1.0723  -1.0470  -0.7424  -0.7141  -0.6888  -0.4981  -0.3887
    -0.1688  -0.1587   0.0391   0.1013   0.1659   0.3304   0.3556   0.6753
     0.8041   1.1916   2.4199   3.6974   4.9297   5.4972   6.2003   6.6893
     7.8177   8.0866

          k = 0.0000-0.5000 0.0000 ( 11796 PWs)   bands (ev):

   -43.4658  -2.8789  -2.8737  -2.5535  -2.5415  -2.0717  -2.0147  -1.6403
    -1.6032  -1.5179  -1.4888  -1.4644  -1.3809  -1.3655  -1.3558  -1.1449
    -1.1136  -1.0849  -1.0106  -0.8512  -0.7135  -0.4186  -0.3365  -0.2989
    -0.1911   0.0608   0.1222   0.1586   0.2507   0.3106   0.3311   2.7754
     2.7777   2.8470   2.8537   2.9197   3.2402   3.4830   6.1468   6.8507
     7.1744   7.7703

          k = 0.1250-0.0000 0.0000 ( 11903 PWs)   bands (ev):

   -43.4753  -3.8633  -3.2870  -2.8031  -2.6482  -2.6402  -2.5449  -2.4184
    -2.2686  -2.0735  -1.8160  -1.5836  -1.4279  -1.3468  -1.2752  -1.2206
    -1.0962  -1.0081  -0.8391  -0.8092  -0.6605  -0.5090  -0.4308  -0.3847
    -0.3446  -0.2989  -0.2335  -0.0861  -0.0363   0.0598   0.1749   0.2197
     0.3686   0.4950   0.5573   1.8044   3.0357   4.2228   5.2922   6.8851
     7.5212   8.0183

          k = 0.1250 0.1250 0.0000 ( 11887 PWs)   bands (ev):

   -43.4737  -3.5654  -3.0137  -2.6153  -2.5255  -2.3980  -2.3628  -2.2775
    -2.1046  -1.9622  -1.8364  -1.6619  -1.4162  -1.3060  -1.2663  -1.2098
    -1.1491  -1.0777  -0.9900  -0.7399  -0.7326  -0.6826  -0.5989  -0.5447
    -0.4205  -0.3094  -0.2773  -0.1596  -0.1218   0.0500   0.1166   0.1687
     0.2752   0.4886   1.0275   2.2292   3.4061   4.6413   5.8192   7.1684
     7.8126   8.2856

          k = 0.1250 0.2500 0.0000 ( 11878 PWs)   bands (ev):

   -43.4699  -2.8654  -2.5906  -2.3637  -2.3506  -2.2178  -2.0858  -2.0208
    -1.8693  -1.7210  -1.5381  -1.4805  -1.3633  -1.3133  -1.2396  -1.1732
    -1.1397  -1.0870  -1.0458  -0.9901  -0.8622  -0.8135  -0.7448  -0.5349
    -0.4203  -0.3935  -0.3397  -0.2123  -0.1748  -0.0187   0.0968   0.2462
     0.4258   0.7790   1.8385   3.1198   4.3306   5.6983   7.0536   8.0250
     8.6926   8.9055

          k = 0.1250 0.3750 0.0000 ( 11868 PWs)   bands (ev):

   -43.4660  -2.6276  -2.6203  -2.4041  -2.3547  -2.0448  -1.9803  -1.9293
    -1.7844  -1.5656  -1.5471  -1.5007  -1.3756  -1.3529  -1.2504  -1.2217
    -1.0854  -1.0442  -0.9996  -0.8440  -0.8074  -0.6465  -0.5986  -0.4289
    -0.3065  -0.1485  -0.0625   0.1102   0.1639   0.2611   0.2832   0.8891
     1.1208   1.8570   2.9648   4.1582   5.3747   5.8405   6.4450   6.9660
     7.9592   8.3024

          k = 0.1250-0.5000 0.0000 ( 11862 PWs)   bands (ev):

   -43.4645  -2.7034  -2.6977  -2.4453  -2.4197  -2.0660  -1.9671  -1.7131
    -1.7039  -1.6391  -1.5845  -1.4994  -1.4908  -1.3758  -1.3667  -1.2107
    -1.1352  -1.0916  -1.0274  -0.7082  -0.6235  -0.5864  -0.5542  -0.2457
    -0.1560  -0.1006  -0.0134   0.1838   0.2567   0.3295   0.3822   3.0282
     3.0370   3.2801   3.2907   3.6360   3.6807   4.0813   6.3611   7.0148
     7.3183   7.9384

          k = 0.1250-0.3750 0.0000 ( 11868 PWs)   bands (ev):

   -43.4660  -2.6276  -2.6203  -2.4041  -2.3547  -2.0448  -1.9803  -1.9293
    -1.7844  -1.5656  -1.5471  -1.5007  -1.3756  -1.3529  -1.2504  -1.2217
    -1.0854  -1.0442  -0.9996  -0.8440  -0.8074  -0.6465  -0.5986  -0.4289
    -0.3065  -0.1485  -0.0625   0.1102   0.1639   0.2611   0.2832   0.8891
     1.1208   1.8570   2.9648   4.1582   5.3747   5.8405   6.4450   6.9660
     7.9592   8.3024

          k = 0.1250-0.2500 0.0000 ( 11878 PWs)   bands (ev):

   -43.4699  -2.8654  -2.5906  -2.3637  -2.3506  -2.2178  -2.0858  -2.0208
    -1.8693  -1.7210  -1.5381  -1.4805  -1.3633  -1.3133  -1.2396  -1.1732
    -1.1397  -1.0870  -1.0458  -0.9901  -0.8622  -0.8135  -0.7448  -0.5349
    -0.4203  -0.3935  -0.3397  -0.2123  -0.1748  -0.0187   0.0968   0.2462
     0.4258   0.7790   1.8385   3.1198   4.3306   5.6983   7.0536   8.0250
     8.6926   8.9055

          k = 0.1250-0.1250 0.0000 ( 11887 PWs)   bands (ev):

   -43.4737  -3.5654  -3.0137  -2.6153  -2.5255  -2.3980  -2.3628  -2.2775
    -2.1046  -1.9622  -1.8364  -1.6619  -1.4162  -1.3060  -1.2663  -1.2098
    -1.1491  -1.0777  -0.9900  -0.7399  -0.7326  -0.6826  -0.5989  -0.5447
    -0.4205  -0.3094  -0.2773  -0.1596  -0.1218   0.0500   0.1166   0.1687
     0.2752   0.4886   1.0275   2.2292   3.4061   4.6413   5.8192   7.1684
     7.8126   8.2856

          k = 0.2500-0.0000 0.0000 ( 11877 PWs)   bands (ev):

   -43.4714  -3.1156  -2.8554  -2.6148  -2.5581  -2.4540  -2.2259  -2.1084
    -1.8784  -1.5994  -1.4403  -1.3595  -1.2041  -1.1778  -1.1730  -1.1549
    -1.1247  -1.0775  -1.0050  -0.9299  -0.8284  -0.7923  -0.6595  -0.5617
    -0.5115  -0.4009  -0.2553  -0.1761  -0.1519   0.0669   0.1618   0.2462
     0.3930   0.4139   1.3511   2.7381   3.9965   5.3348   6.6683   7.7401
     8.4000   8.6266

          k = 0.2500 0.1250 0.0000 ( 11878 PWs)   bands (ev):

   -43.4699  -2.8654  -2.5906  -2.3637  -2.3506  -2.2178  -2.0858  -2.0208
    -1.8693  -1.7210  -1.5381  -1.4805  -1.3633  -1.3133  -1.2396  -1.1732
    -1.1397  -1.0870  -1.0458  -0.9901  -0.8622  -0.8135  -0.7448  -0.5349
    -0.4203  -0.3935  -0.3397  -0.2123  -0.1748  -0.0187   0.0968   0.2462
     0.4258   0.7790   1.8385   3.1198   4.3306   5.6983   7.0536   8.0250
     8.6926   8.9056

          k = 0.2500 0.2500 0.0000 ( 11857 PWs)   bands (ev):

   -43.4660  -2.4534  -2.1971  -2.1303  -2.0905  -1.9890  -1.9573  -1.8908
    -1.8136  -1.7609  -1.6836  -1.6827  -1.6590  -1.5121  -1.4277  -1.2417
    -1.1394  -1.1339  -0.7652  -0.7629  -0.7297  -0.6186  -0.5399  -0.4907
    -0.4519  -0.3912  -0.3348  -0.2513  -0.2036   0.0291   0.1398   0.4747
     0.7180   1.6486   2.7961   4.0274   5.2309   6.6644   8.0723   8.7947
     8.8744   9.5684

          k = 0.2500 0.3750 0.0000 ( 11826 PWs)   bands (ev):

   -43.4622  -2.4223  -2.3964  -2.3395  -2.2800  -2.2105  -2.1729  -2.0768
    -1.9856  -1.8656  -1.7117  -1.6841  -1.5228  -1.2166  -1.1825  -1.1346
    -0.9600  -0.9293  -0.6898  -0.6590  -0.6027  -0.5257  -0.4979  -0.3745
    -0.3115  -0.1290   0.0369   0.1739   0.2048   0.2416   0.4192   1.3402
     2.0091   2.9768   4.1002   5.2604   6.4366   6.6171   7.0798   7.7759
     8.3888   8.9839

          k = 0.2500-0.5000 0.0000 ( 11818 PWs)   bands (ev):

   -43.4606  -2.4705  -2.4694  -2.4612  -2.4509  -2.2952  -2.2713  -2.1552
    -2.0698  -1.9354  -1.7720  -1.7710  -1.5777  -1.0789  -0.9690  -0.9134
    -0.8824  -0.8175  -0.7473  -0.7134  -0.5801  -0.5557  -0.5312  -0.2550
    -0.1378   0.0890   0.1407   0.3300   0.3747   0.3885   0.4360   3.6282
     3.7066   4.1003   4.2606   4.8308   5.0677   5.5704   6.9723   7.5125
     7.8129   8.5584

          k = 0.2500-0.3750 0.0000 ( 11826 PWs)   bands (ev):

   -43.4622  -2.4223  -2.3964  -2.3395  -2.2800  -2.2105  -2.1729  -2.0768
    -1.9856  -1.8656  -1.7117  -1.6841  -1.5228  -1.2166  -1.1825  -1.1346
    -0.9600  -0.9293  -0.6898  -0.6590  -0.6027  -0.5257  -0.4979  -0.3745
    -0.3115  -0.1290   0.0369   0.1739   0.2048   0.2416   0.4192   1.3402
     2.0091   2.9768   4.1002   5.2604   6.4366   6.6171   7.0798   7.7759
     8.3888   8.9839

          k = 0.2500-0.2500 0.0000 ( 11857 PWs)   bands (ev):

   -43.4660  -2.4534  -2.1971  -2.1303  -2.0905  -1.9890  -1.9573  -1.8908
    -1.8136  -1.7609  -1.6836  -1.6827  -1.6590  -1.5121  -1.4277  -1.2417
    -1.1394  -1.1339  -0.7652  -0.7629  -0.7297  -0.6186  -0.5399  -0.4907
    -0.4519  -0.3912  -0.3348  -0.2513  -0.2036   0.0291   0.1398   0.4747
     0.7180   1.6486   2.7961   4.0274   5.2309   6.6644   8.0723   8.7947
     8.8744   9.5684

          k = 0.2500-0.1250 0.0000 ( 11878 PWs)   bands (ev):

   -43.4699  -2.8654  -2.5906  -2.3637  -2.3506  -2.2178  -2.0858  -2.0208
    -1.8693  -1.7210  -1.5381  -1.4805  -1.3633  -1.3133  -1.2396  -1.1732
    -1.1397  -1.0870  -1.0458  -0.9901  -0.8622  -0.8135  -0.7448  -0.5349
    -0.4203  -0.3935  -0.3397  -0.2123  -0.1748  -0.0187   0.0968   0.2462
     0.4258   0.7790   1.8385   3.1198   4.3306   5.6983   7.0536   8.0251
     8.6926   8.9055

          k = 0.3750-0.0000 0.0000 ( 11873 PWs)   bands (ev):

   -43.4676  -2.8249  -2.8066  -2.5723  -2.5008  -2.2296  -2.0710  -1.7649
    -1.6325  -1.5533  -1.3955  -1.3608  -1.3484  -1.2930  -1.2826  -1.1321
    -1.1028  -1.0723  -1.0470  -0.7424  -0.7141  -0.6888  -0.4981  -0.3887
    -0.1688  -0.1587   0.0391   0.1013   0.1659   0.3304   0.3556   0.6753
     0.8041   1.1916   2.4199   3.6974   4.9297   5.4972   6.2003   6.6893
     7.8177   8.0866

          k = 0.3750 0.1250 0.0000 ( 11868 PWs)   bands (ev):

   -43.4660  -2.6276  -2.6203  -2.4041  -2.3547  -2.0448  -1.9803  -1.9293
    -1.7844  -1.5656  -1.5471  -1.5007  -1.3756  -1.3529  -1.2504  -1.2217
    -1.0854  -1.0442  -0.9996  -0.8440  -0.8074  -0.6465  -0.5986  -0.4289
    -0.3065  -0.1485  -0.0625   0.1102   0.1639   0.2611   0.2832   0.8891
     1.1208   1.8570   2.9648   4.1582   5.3747   5.8405   6.4450   6.9660
     7.9592   8.3024

          k = 0.3750 0.2500 0.0000 ( 11826 PWs)   bands (ev):

   -43.4622  -2.4223  -2.3964  -2.3395  -2.2800  -2.2105  -2.1729  -2.0768
    -1.9856  -1.8656  -1.7117  -1.6841  -1.5228  -1.2166  -1.1825  -1.1346
    -0.9600  -0.9293  -0.6898  -0.6590  -0.6027  -0.5257  -0.4979  -0.3745
    -0.3115  -0.1290   0.0369   0.1739   0.2048   0.2416   0.4192   1.3402
     2.0091   2.9768   4.1002   5.2604   6.4366   6.6171   7.0798   7.7759
     8.3888   8.9839

          k = 0.3750 0.3750 0.0000 ( 11799 PWs)   bands (ev):

   -43.4584  -2.6719  -2.6344  -2.5928  -2.5568  -2.3622  -2.3048  -2.2973
    -2.2842  -2.0067  -1.8478  -1.8094  -1.8053  -1.3301  -1.2211  -0.7676
    -0.6372  -0.4935  -0.2797  -0.2669  -0.2180  -0.1532  -0.0307  -0.0154
     0.0955   0.1881   0.1891   0.2186   0.2231   0.3392   0.4971   2.5400
     3.3546   4.4155   5.5713   6.4731   6.7541   7.1634   8.0158   8.2729
     9.3426   9.6302

          k = 0.3750-0.5000 0.0000 ( 11750 PWs)   bands (ev):

   -43.4568  -2.7838  -2.7635  -2.6845  -2.6810  -2.4801  -2.4299  -2.3950
    -2.3713  -2.1577  -1.9355  -1.9280  -1.8256  -1.2396  -1.1618  -0.5911
    -0.5154  -0.4269  -0.2786  -0.1642  -0.0565   0.0447   0.0868   0.1033
     0.1484   0.3072   0.3717   0.4251   0.4390   0.4582   0.5972   4.5260
     4.6131   5.2120   5.3949   6.2228   6.5001   7.3730   7.8051   8.6516
     8.8666   9.7926

          k = 0.3750-0.3750 0.0000 ( 11799 PWs)   bands (ev):

   -43.4584  -2.6719  -2.6344  -2.5928  -2.5568  -2.3622  -2.3048  -2.2973
    -2.2842  -2.0067  -1.8478  -1.8094  -1.8053  -1.3301  -1.2211  -0.7676
    -0.6372  -0.4935  -0.2797  -0.2669  -0.2180  -0.1532  -0.0307  -0.0154
     0.0955   0.1881   0.1891   0.2186   0.2231   0.3392   0.4971   2.5400
     3.3546   4.4155   5.5713   6.4731   6.7541   7.1634   8.0158   8.2729
     9.3426   9.6302

          k = 0.3750-0.2500 0.0000 ( 11826 PWs)   bands (ev):

   -43.4622  -2.4223  -2.3964  -2.3395  -2.2800  -2.2105  -2.1729  -2.0768
    -1.9856  -1.8656  -1.7117  -1.6841  -1.5228  -1.2166  -1.1825  -1.1346
    -0.9600  -0.9293  -0.6898  -0.6590  -0.6027  -0.5257  -0.4979  -0.3745
    -0.3115  -0.1290   0.0369   0.1739   0.2048   0.2416   0.4192   1.3402
     2.0091   2.9768   4.1002   5.2604   6.4366   6.6171   7.0798   7.7759
     8.3888   8.9839

          k = 0.3750-0.1250 0.0000 ( 11868 PWs)   bands (ev):

   -43.4660  -2.6276  -2.6203  -2.4041  -2.3547  -2.0448  -1.9803  -1.9293
    -1.7844  -1.5656  -1.5471  -1.5007  -1.3756  -1.3529  -1.2504  -1.2217
    -1.0854  -1.0442  -0.9996  -0.8440  -0.8074  -0.6465  -0.5986  -0.4289
    -0.3065  -0.1485  -0.0625   0.1102   0.1639   0.2611   0.2832   0.8891
     1.1208   1.8570   2.9648   4.1582   5.3747   5.8405   6.4450   6.9660
     7.9591   8.3024

          k =-0.5000 0.0000 0.0000 ( 11796 PWs)   bands (ev):

   -43.4658  -2.8789  -2.8737  -2.5535  -2.5415  -2.0717  -2.0147  -1.6403
    -1.6032  -1.5179  -1.4888  -1.4644  -1.3809  -1.3655  -1.3558  -1.1449
    -1.1136  -1.0849  -1.0106  -0.8512  -0.7135  -0.4186  -0.3365  -0.2989
    -0.1911   0.0608   0.1222   0.1586   0.2507   0.3106   0.3311   2.7754
     2.7777   2.8470   2.8537   2.9197   3.2402   3.4830   6.1468   6.8507
     7.1744   7.7703

          k =-0.5000 0.1250 0.0000 ( 11862 PWs)   bands (ev):

   -43.4645  -2.7034  -2.6977  -2.4453  -2.4197  -2.0660  -1.9671  -1.7131
    -1.7039  -1.6391  -1.5845  -1.4994  -1.4908  -1.3758  -1.3667  -1.2107
    -1.1352  -1.0916  -1.0274  -0.7082  -0.6235  -0.5864  -0.5542  -0.2457
    -0.1560  -0.1006  -0.0134   0.1838   0.2567   0.3295   0.3822   3.0282
     3.0370   3.2801   3.2907   3.6360   3.6807   4.0813   6.3611   7.0148
     7.3183   7.9384

          k =-0.5000 0.2500 0.0000 ( 11818 PWs)   bands (ev):

   -43.4606  -2.4705  -2.4694  -2.4612  -2.4509  -2.2952  -2.2713  -2.1552
    -2.0698  -1.9354  -1.7720  -1.7710  -1.5777  -1.0789  -0.9690  -0.9134
    -0.8824  -0.8175  -0.7473  -0.7134  -0.5801  -0.5557  -0.5312  -0.2550
    -0.1378   0.0890   0.1407   0.3300   0.3747   0.3885   0.4360   3.6282
     3.7066   4.1003   4.2606   4.8308   5.0677   5.5704   6.9723   7.5125
     7.8130   8.5584

          k =-0.5000 0.3750 0.0000 ( 11750 PWs)   bands (ev):

   -43.4568  -2.7838  -2.7635  -2.6845  -2.6810  -2.4801  -2.4299  -2.3950
    -2.3713  -2.1577  -1.9355  -1.9280  -1.8256  -1.2397  -1.1618  -0.5911
    -0.5154  -0.4269  -0.2786  -0.1642  -0.0565   0.0447   0.0868   0.1033
     0.1484   0.3072   0.3717   0.4251   0.4390   0.4582   0.5972   4.5260
     4.6131   5.2120   5.3949   6.2228   6.5001   7.3730   7.8051   8.6516
     8.8666   9.7926

          k =-0.5000-0.5000 0.0000 ( 11668 PWs)   bands (ev):

   -43.4550  -2.9256  -2.9034  -2.7775  -2.7775  -2.6389  -2.5750  -2.4458
    -2.4458  -2.3381  -2.0848  -1.8884  -1.8884  -1.1775  -1.1775  -0.4285
    -0.3799  -0.3799  -0.2383  -0.0617   0.0514   0.2466   0.2834   0.3148
     0.3148   0.5226   0.5473   0.5846   0.5960   0.6159   0.8202   5.1899
     5.1899   6.0702   6.0702   7.3201   7.3201   8.5677   8.7283   8.7284
     9.9929  10.0086

     the Fermi energy is     3.2696 ev

!    total energy              =    -520.63238424 Ry
     estimated scf accuracy    <       0.00000044 Ry
     smearing contrib. (-TS)   =      -0.00044410 Ry
     internal energy E=F+TS    =    -520.63194014 Ry

     The total energy is F=E-TS. E is the sum of the following terms:
     one-electron contribution =   -6270.10438224 Ry
     hartree contribution      =    3184.95382241 Ry
     xc contribution           =    -137.58511786 Ry
     ewald contribution        =    2702.29047452 Ry
     DFT-D3 Dispersion         =      -0.18673697 Ry

     convergence has been achieved in  12 iterations

     negative rho (up, down):  9.329E-06 0.000E+00

     Forces acting on atoms (cartesian axes, Ry/au):

     atom    1 type  2   force =     0.00000072    0.00000162    0.00118418
     atom    2 type  2   force =    -0.00000050   -0.00000038    0.00003814
     atom    3 type  2   force =     0.00000020    0.00000028   -0.00251037
     atom    4 type  2   force =     0.00000017   -0.00000148    0.00159757
     atom    5 type  2   force =     0.00000056   -0.00000054    0.01531175
     atom    6 type  2   force =    -0.00000128    0.00000092   -0.00309667
     atom    7 type  1   force =     0.00000012   -0.00000042   -0.01252461
     The non-local contrib.  to forces
     atom    1 type  2   force =     0.00000096    0.00000166   -0.02598330
     atom    2 type  2   force =    -0.00000007    0.00000038   -0.09154058
     atom    3 type  2   force =    -0.00000008    0.00000071    0.00127266
     atom    4 type  2   force =     0.00000071   -0.00000200    0.00028318
     atom    5 type  2   force =     0.00000076   -0.00000039   -0.00485495
     atom    6 type  2   force =    -0.00000163    0.00000107    0.00821208
     atom    7 type  1   force =     0.00000013   -0.00000040    0.04578516
     The ionic contribution  to forces
     atom    1 type  2   force =     0.00000000    0.00000000  -94.61595635
     atom    2 type  2   force =    -0.00000000   -0.00000000 -150.71924080
     atom    3 type  2   force =     0.00000627    0.00002582   21.68578896
     atom    4 type  2   force =    -0.00000010   -0.00000041  -36.49362520
     atom    5 type  2   force =     0.00000914    0.00003067  136.85699675
     atom    6 type  2   force =    -0.00001526   -0.00005593   80.06992313
     atom    7 type  1   force =    -0.00000004   -0.00000015   43.21611351
     The local contribution  to forces
     atom    1 type  2   force =    -0.00000089    0.00000057   94.63622795
     atom    2 type  2   force =     0.00000050   -0.00000101  150.79952276
     atom    3 type  2   force =    -0.00000695   -0.00002551  -21.68833324
     atom    4 type  2   force =     0.00000025    0.00000021   36.49411046
     atom    5 type  2   force =    -0.00001044   -0.00003017 -136.83017411
     atom    6 type  2   force =     0.00001519    0.00005428  -80.07645708
     atom    7 type  1   force =     0.00000021   -0.00000006  -43.27172728
     The core correction contribution to forces
     atom    1 type  2   force =    -0.00000005    0.00000003    0.00003973
     atom    2 type  2   force =     0.00000002   -0.00000006    0.00621250
     atom    3 type  2   force =    -0.00000007   -0.00000013    0.00043268
     atom    4 type  2   force =     0.00000000   -0.00000004   -0.00003679
     atom    5 type  2   force =    -0.00000010   -0.00000015   -0.00058969
     atom    6 type  2   force =     0.00000006    0.00000014   -0.00027197
     atom    7 type  1   force =     0.00000000    0.00000000    0.00000000
     The Hubbard contrib.    to forces
     atom    1 type  2   force =     0.00000000    0.00000000    0.00000000
     atom    2 type  2   force =     0.00000000    0.00000000    0.00000000
     atom    3 type  2   force =     0.00000000    0.00000000    0.00000000
     atom    4 type  2   force =     0.00000000    0.00000000    0.00000000
     atom    5 type  2   force =     0.00000000    0.00000000    0.00000000
     atom    6 type  2   force =     0.00000000    0.00000000    0.00000000
     atom    7 type  1   force =     0.00000000    0.00000000    0.00000000
     The SCF correction term to forces
     atom    1 type  2   force =     0.00000068   -0.00000040    0.00165004
     atom    2 type  2   force =    -0.00000097    0.00000054    0.00081240
     atom    3 type  2   force =     0.00000103   -0.00000031   -0.00151592
     atom    4 type  2   force =    -0.00000070    0.00000099   -0.00007912
     atom    5 type  2   force =     0.00000119   -0.00000019   -0.00201023
     atom    6 type  2   force =     0.00000031    0.00000147   -0.00088964
     atom    7 type  1   force =    -0.00000019    0.00000043   -0.00046100

     DFT-D3 dispersion contribution to forces:
     atom    1 type  2   force =    -0.00000000   -0.00000000    0.00515420
     atom    2 type  2   force =    -0.00000000    0.00000000    0.00421996
     atom    3 type  2   force =    -0.00000001   -0.00000006   -0.00020741
     atom    4 type  2   force =     0.00000000    0.00000000    0.00089315
     atom    5 type  2   force =    -0.00000002   -0.00000008   -0.00410791
     atom    6 type  2   force =     0.00000004    0.00000013   -0.00366509
     atom    7 type  1   force =    -0.00000000   -0.00000000   -0.00228690

     Total force =     0.020277     Total SCF correction =     0.003276
     SCF correction compared to forces is large: reduce conv_thr to get better values


     Computing stress (Cartesian axis) and pressure


     negative rho (up, down):  9.329E-06 0.000E+00
          total   stress  (Ry/bohr**3)                   (kbar)     P=      -16.94
  -0.00012534   0.00000000  -0.00000000          -18.44        0.00       -0.00
   0.00000000  -0.00012534  -0.00000000            0.00      -18.44       -0.00
  -0.00000000  -0.00000000  -0.00009483           -0.00       -0.00      -13.95


     BFGS Geometry Optimization
     Energy error            =      0.0E+00 Ry
     Gradient error          =      1.5E-02 Ry/Bohr

     number of scf cycles    =   1
     number of bfgs steps    =   0

     energy             new  =    -520.6323842378 Ry

     new trust radius        =       0.0153117548 bohr
     new conv_thr            =       0.0000010000 Ry


ATOMIC_POSITIONS (angstrom)
Ag            2.1766640416        0.7255554108       12.0528048216
Ag            0.7255542907        2.1766634582       10.0000201830
Ag            2.1766637662        0.7255547023       16.1552061075
Ag            0.7255546449        2.1766628765       14.1052017586
Ag            2.1766623192        0.7255511831       20.2489276694
Ag            0.7255568903        2.1766766212       18.1860669329
Li            0.7255529824        2.1766603532       22.2341972979



     Writing config-only to output data dir ./Ag_mp-124_100_bridge_1/Ag_mp-124_100_bridge_1.save/
     NEW-OLD atomic charge density approx. for the potential

     negative rho (up, down):  9.264E-06 0.000E+00

     total cpu time spent up to now is       29.6 secs

     per-process dynamical memory:   188.2 Mb

     Self-consistent Calculation

     iteration #  1     ecut=    55.00 Ry     beta= 0.30
     Davidson diagonalization with overlap
     ethr =  1.00E-06,  avg # of iterations =  4.4

     negative rho (up, down):  9.271E-06 0.000E+00

     total cpu time spent up to now is       31.5 secs

     total energy              =    -520.63267670 Ry
     estimated scf accuracy    <       0.00022116 Ry

     iteration #  2     ecut=    55.00 Ry     beta= 0.30
     Davidson diagonalization with overlap
     ethr =  3.21E-07,  avg # of iterations =  5.7

     negative rho (up, down):  1.012E-05 0.000E+00

     total cpu time spent up to now is       32.3 secs

     total energy              =    -520.63203634 Ry
     estimated scf accuracy    <       0.03759693 Ry

     iteration #  3     ecut=    55.00 Ry     beta= 0.30
     Davidson diagonalization with overlap
     ethr =  3.21E-07,  avg # of iterations =  5.1

     negative rho (up, down):  1.127E-05 0.000E+00

     total cpu time spent up to now is       33.1 secs

     total energy              =    -520.63275125 Ry
     estimated scf accuracy    <       0.00063389 Ry

     iteration #  4     ecut=    55.00 Ry     beta= 0.30
     Davidson diagonalization with overlap
     ethr =  3.21E-07,  avg # of iterations =  1.6

     negative rho (up, down):  1.056E-05 0.000E+00

     total cpu time spent up to now is       33.7 secs

     total energy              =    -520.63277783 Ry
     estimated scf accuracy    <       0.00001119 Ry

     iteration #  5     ecut=    55.00 Ry     beta= 0.30
     Davidson diagonalization with overlap
     ethr =  1.62E-08,  avg # of iterations =  2.0

     negative rho (up, down):  9.796E-06 0.000E+00

     total cpu time spent up to now is       34.3 secs

     total energy              =    -520.63277897 Ry
     estimated scf accuracy    <       0.00000106 Ry

     iteration #  6     ecut=    55.00 Ry     beta= 0.30
     Davidson diagonalization with overlap
     ethr =  1.54E-09,  avg # of iterations =  2.9

     negative rho (up, down):  9.357E-06 0.000E+00

     total cpu time spent up to now is       34.8 secs

     End of self-consistent calculation

          k = 0.0000 0.0000 0.0000 ( 11951 PWs)   bands (ev):

   -43.4619  -4.1654  -3.5420  -2.9353  -2.8170  -2.7875  -2.6663  -2.6162
    -2.3339  -2.3053  -1.9599  -1.6602  -1.4642  -1.3297  -1.3297  -1.0842
    -1.0842  -0.9331  -0.6970  -0.6970  -0.5947  -0.4640  -0.3656  -0.2606
    -0.2408  -0.2408  -0.0962  -0.0383   0.1001   0.1934   0.1934   0.2688
     0.3590   0.4976   0.4976   1.2849   2.6006   3.7790   4.6661   6.6003
     7.2311   7.7493

          k = 0.0000 0.1250 0.0000 ( 11903 PWs)   bands (ev):

   -43.4601  -3.8601  -3.2797  -2.8004  -2.6439  -2.6370  -2.5406  -2.4124
    -2.2656  -2.0717  -1.8163  -1.5827  -1.4244  -1.3446  -1.2722  -1.2178
    -1.0905  -1.0071  -0.8434  -0.8055  -0.6598  -0.5043  -0.4288  -0.3847
    -0.3442  -0.2956  -0.2323  -0.0860  -0.0371   0.0619   0.1764   0.2217
     0.3696   0.4968   0.5584   1.8060   3.0419   4.2294   5.2949   6.8827
     7.5213   8.0179

          k = 0.0000 0.2500 0.0000 ( 11877 PWs)   bands (ev):

   -43.4563  -3.1125  -2.8498  -2.6110  -2.5570  -2.4455  -2.2225  -2.1047
    -1.8720  -1.5970  -1.4385  -1.3586  -1.2048  -1.1761  -1.1690  -1.1520
    -1.1253  -1.0765  -0.9987  -0.9297  -0.8223  -0.7907  -0.6566  -0.5592
    -0.5105  -0.4018  -0.2566  -0.1742  -0.1512   0.0676   0.1630   0.2460
     0.3949   0.4157   1.3511   2.7413   4.0030   5.3397   6.6703   7.7381
     8.4001   8.6283

          k = 0.0000 0.3750 0.0000 ( 11873 PWs)   bands (ev):

   -43.4524  -2.8209  -2.8044  -2.5652  -2.4954  -2.2253  -2.0685  -1.7633
    -1.6293  -1.5536  -1.3926  -1.3632  -1.3475  -1.2896  -1.2793  -1.1293
    -1.1004  -1.0651  -1.0404  -0.7407  -0.7105  -0.6868  -0.4976  -0.3891
    -0.1700  -0.1560   0.0403   0.1001   0.1675   0.3316   0.3577   0.6775
     0.8056   1.1915   2.4199   3.7014   4.9336   5.4994   6.2044   6.6925
     7.8194   8.0900

          k = 0.0000-0.5000 0.0000 ( 11796 PWs)   bands (ev):

   -43.4506  -2.8752  -2.8712  -2.5465  -2.5347  -2.0691  -2.0125  -1.6417
    -1.6045  -1.5162  -1.4841  -1.4635  -1.3794  -1.3627  -1.3518  -1.1386
    -1.1062  -1.0818  -1.0090  -0.8501  -0.7105  -0.4181  -0.3326  -0.3006
    -0.1913   0.0601   0.1233   0.1593   0.2532   0.3121   0.3329   2.7782
     2.7808   2.8473   2.8555   2.9216   3.2392   3.4858   6.1493   6.8585
     7.1814   7.7689

          k = 0.1250-0.0000 0.0000 ( 11903 PWs)   bands (ev):

   -43.4601  -3.8601  -3.2797  -2.8004  -2.6439  -2.6370  -2.5406  -2.4124
    -2.2656  -2.0717  -1.8163  -1.5827  -1.4244  -1.3446  -1.2722  -1.2178
    -1.0905  -1.0071  -0.8434  -0.8055  -0.6598  -0.5043  -0.4288  -0.3847
    -0.3442  -0.2956  -0.2323  -0.0860  -0.0371   0.0619   0.1764   0.2217
     0.3696   0.4968   0.5584   1.8060   3.0419   4.2294   5.2949   6.8827
     7.5213   8.0179

          k = 0.1250 0.1250 0.0000 ( 11887 PWs)   bands (ev):

   -43.4585  -3.5622  -3.0064  -2.6125  -2.5222  -2.3931  -2.3564  -2.2735
    -2.1017  -1.9597  -1.8353  -1.6609  -1.4137  -1.3003  -1.2640  -1.2088
    -1.1482  -1.0735  -0.9880  -0.7422  -0.7315  -0.6802  -0.5973  -0.5426
    -0.4184  -0.3073  -0.2779  -0.1588  -0.1224   0.0523   0.1191   0.1689
     0.2764   0.4902   1.0281   2.2315   3.4126   4.6470   5.8218   7.1661
     7.8127   8.2851

          k = 0.1250 0.2500 0.0000 ( 11878 PWs)   bands (ev):

   -43.4547  -2.8623  -2.5852  -2.3598  -2.3490  -2.2089  -2.0829  -2.0160
    -1.8632  -1.7189  -1.5361  -1.4772  -1.3618  -1.3112  -1.2354  -1.1698
    -1.1386  -1.0865  -1.0455  -0.9877  -0.8602  -0.8101  -0.7435  -0.5351
    -0.4190  -0.3928  -0.3396  -0.2116  -0.1730  -0.0187   0.0982   0.2463
     0.4277   0.7787   1.8384   3.1239   4.3366   5.7032   7.0557   8.0231
     8.6927   8.9068

          k = 0.1250 0.3750 0.0000 ( 11868 PWs)   bands (ev):

   -43.4509  -2.6239  -2.6179  -2.3979  -2.3487  -2.0404  -1.9772  -1.9261
    -1.7801  -1.5644  -1.5441  -1.4962  -1.3741  -1.3486  -1.2508  -1.2200
    -1.0829  -1.0418  -0.9962  -0.8408  -0.8054  -0.6488  -0.5979  -0.4259
    -0.3088  -0.1460  -0.0600   0.1098   0.1652   0.2628   0.2849   0.8909
     1.1222   1.8557   2.9653   4.1627   5.3783   5.8425   6.4483   6.9693
     7.9614   8.3061

          k = 0.1250-0.5000 0.0000 ( 11862 PWs)   bands (ev):

   -43.4493  -2.7004  -2.6946  -2.4393  -2.4131  -2.0626  -1.9632  -1.7090
    -1.7013  -1.6371  -1.5819  -1.4970  -1.4846  -1.3746  -1.3666  -1.2095
    -1.1327  -1.0898  -1.0233  -0.7055  -0.6220  -0.5874  -0.5555  -0.2486
    -0.1533  -0.0994  -0.0101   0.1853   0.2593   0.3301   0.3837   3.0298
     3.0398   3.2814   3.2908   3.6360   3.6825   4.0840   6.3634   7.0231
     7.3248   7.9372

          k = 0.1250-0.3750 0.0000 ( 11868 PWs)   bands (ev):

   -43.4509  -2.6239  -2.6179  -2.3979  -2.3487  -2.0404  -1.9772  -1.9261
    -1.7801  -1.5644  -1.5441  -1.4962  -1.3741  -1.3486  -1.2508  -1.2200
    -1.0829  -1.0418  -0.9962  -0.8408  -0.8054  -0.6488  -0.5979  -0.4259
    -0.3088  -0.1460  -0.0600   0.1098   0.1652   0.2628   0.2849   0.8909
     1.1222   1.8557   2.9653   4.1627   5.3783   5.8425   6.4483   6.9693
     7.9614   8.3061

          k = 0.1250-0.2500 0.0000 ( 11878 PWs)   bands (ev):

   -43.4547  -2.8623  -2.5852  -2.3598  -2.3490  -2.2089  -2.0829  -2.0160
    -1.8632  -1.7189  -1.5361  -1.4772  -1.3618  -1.3112  -1.2354  -1.1698
    -1.1386  -1.0865  -1.0455  -0.9877  -0.8602  -0.8101  -0.7435  -0.5351
    -0.4190  -0.3928  -0.3396  -0.2116  -0.1730  -0.0187   0.0982   0.2463
     0.4277   0.7787   1.8384   3.1239   4.3366   5.7032   7.0557   8.0231
     8.6926   8.9066

          k = 0.1250-0.1250 0.0000 ( 11887 PWs)   bands (ev):

   -43.4585  -3.5622  -3.0064  -2.6125  -2.5222  -2.3931  -2.3564  -2.2735
    -2.1017  -1.9597  -1.8353  -1.6609  -1.4137  -1.3003  -1.2640  -1.2088
    -1.1482  -1.0735  -0.9880  -0.7422  -0.7315  -0.6802  -0.5973  -0.5426
    -0.4184  -0.3073  -0.2779  -0.1588  -0.1224   0.0523   0.1191   0.1689
     0.2764   0.4902   1.0281   2.2315   3.4126   4.6470   5.8218   7.1661
     7.8127   8.2851

          k = 0.2500-0.0000 0.0000 ( 11877 PWs)   bands (ev):

   -43.4563  -3.1125  -2.8498  -2.6110  -2.5570  -2.4455  -2.2225  -2.1047
    -1.8720  -1.5970  -1.4385  -1.3586  -1.2048  -1.1761  -1.1690  -1.1520
    -1.1253  -1.0765  -0.9987  -0.9297  -0.8223  -0.7907  -0.6566  -0.5592
    -0.5105  -0.4018  -0.2566  -0.1742  -0.1512   0.0676   0.1630   0.2460
     0.3949   0.4156   1.3511   2.7413   4.0030   5.3397   6.6703   7.7381
     8.4001   8.6285

          k = 0.2500 0.1250 0.0000 ( 11878 PWs)   bands (ev):

   -43.4547  -2.8623  -2.5852  -2.3598  -2.3490  -2.2089  -2.0829  -2.0160
    -1.8632  -1.7189  -1.5361  -1.4772  -1.3618  -1.3112  -1.2354  -1.1698
    -1.1386  -1.0865  -1.0455  -0.9877  -0.8602  -0.8101  -0.7435  -0.5351
    -0.4190  -0.3928  -0.3396  -0.2116  -0.1730  -0.0187   0.0982   0.2463
     0.4277   0.7787   1.8384   3.1239   4.3366   5.7032   7.0557   8.0231
     8.6926   8.9066

          k = 0.2500 0.2500 0.0000 ( 11857 PWs)   bands (ev):

   -43.4509  -2.4504  -2.1940  -2.1269  -2.0847  -1.9852  -1.9502  -1.8843
    -1.8102  -1.7533  -1.6809  -1.6808  -1.6569  -1.5068  -1.4265  -1.2393
    -1.1372  -1.1366  -0.7662  -0.7594  -0.7283  -0.6181  -0.5379  -0.4905
    -0.4501  -0.3899  -0.3325  -0.2525  -0.2018   0.0301   0.1393   0.4762
     0.7183   1.6467   2.7962   4.0331   5.2356   6.6693   8.0747   8.7933
     8.8727   9.5685

          k = 0.2500 0.3750 0.0000 ( 11826 PWs)   bands (ev):

   -43.4470  -2.4190  -2.3936  -2.3362  -2.2774  -2.2043  -2.1691  -2.0694
    -1.9786  -1.8603  -1.7081  -1.6824  -1.5202  -1.2131  -1.1816  -1.1336
    -0.9596  -0.9302  -0.6882  -0.6591  -0.6010  -0.5246  -0.4986  -0.3724
    -0.3093  -0.1263   0.0356   0.1755   0.2062   0.2422   0.4213   1.3420
     2.0098   2.9743   4.1019   5.2661   6.4383   6.6194   7.0809   7.7796
     8.3925   8.9894

          k = 0.2500-0.5000 0.0000 ( 11818 PWs)   bands (ev):

   -43.4455  -2.4675  -2.4634  -2.4593  -2.4491  -2.2907  -2.2662  -2.1482
    -2.0622  -1.9307  -1.7698  -1.7682  -1.5750  -1.0778  -0.9676  -0.9131
    -0.8828  -0.8154  -0.7469  -0.7117  -0.5773  -0.5565  -0.5317  -0.2554
    -0.1358   0.0897   0.1434   0.3298   0.3762   0.3906   0.4382   3.6286
     3.7089   4.0993   4.2617   4.8339   5.0659   5.5739   6.9745   7.5223
     7.8190   8.5582

          k = 0.2500-0.3750 0.0000 ( 11826 PWs)   bands (ev):

   -43.4470  -2.4190  -2.3936  -2.3362  -2.2774  -2.2043  -2.1691  -2.0694
    -1.9786  -1.8603  -1.7081  -1.6824  -1.5202  -1.2131  -1.1816  -1.1336
    -0.9596  -0.9302  -0.6882  -0.6591  -0.6010  -0.5246  -0.4986  -0.3724
    -0.3093  -0.1263   0.0356   0.1755   0.2062   0.2422   0.4213   1.3420
     2.0098   2.9743   4.1019   5.2661   6.4383   6.6194   7.0809   7.7796
     8.3926   8.9893

          k = 0.2500-0.2500 0.0000 ( 11857 PWs)   bands (ev):

   -43.4509  -2.4504  -2.1940  -2.1269  -2.0847  -1.9852  -1.9502  -1.8843
    -1.8102  -1.7533  -1.6809  -1.6808  -1.6569  -1.5068  -1.4265  -1.2393
    -1.1372  -1.1366  -0.7662  -0.7594  -0.7283  -0.6181  -0.5379  -0.4905
    -0.4501  -0.3899  -0.3325  -0.2525  -0.2018   0.0301   0.1393   0.4762
     0.7183   1.6467   2.7962   4.0331   5.2356   6.6693   8.0747   8.7933
     8.8727   9.5686

          k = 0.2500-0.1250 0.0000 ( 11878 PWs)   bands (ev):

   -43.4547  -2.8623  -2.5852  -2.3598  -2.3490  -2.2089  -2.0829  -2.0160
    -1.8632  -1.7189  -1.5361  -1.4772  -1.3618  -1.3112  -1.2354  -1.1698
    -1.1386  -1.0865  -1.0455  -0.9877  -0.8602  -0.8101  -0.7435  -0.5351
    -0.4190  -0.3928  -0.3396  -0.2116  -0.1730  -0.0187   0.0982   0.2463
     0.4277   0.7787   1.8384   3.1239   4.3366   5.7032   7.0557   8.0231
     8.6926   8.9067

          k = 0.3750-0.0000 0.0000 ( 11873 PWs)   bands (ev):

   -43.4524  -2.8209  -2.8044  -2.5652  -2.4954  -2.2253  -2.0685  -1.7633
    -1.6293  -1.5536  -1.3926  -1.3632  -1.3475  -1.2896  -1.2793  -1.1293
    -1.1004  -1.0651  -1.0404  -0.7407  -0.7105  -0.6868  -0.4976  -0.3891
    -0.1700  -0.1560   0.0403   0.1001   0.1675   0.3316   0.3577   0.6775
     0.8056   1.1915   2.4199   3.7014   4.9336   5.4994   6.2045   6.6924
     7.8195   8.0898

          k = 0.3750 0.1250 0.0000 ( 11868 PWs)   bands (ev):

   -43.4509  -2.6239  -2.6179  -2.3979  -2.3487  -2.0404  -1.9772  -1.9261
    -1.7801  -1.5644  -1.5441  -1.4962  -1.3741  -1.3486  -1.2508  -1.2200
    -1.0829  -1.0418  -0.9962  -0.8408  -0.8054  -0.6488  -0.5979  -0.4259
    -0.3088  -0.1460  -0.0600   0.1098   0.1652   0.2628   0.2849   0.8909
     1.1222   1.8557   2.9653   4.1627   5.3783   5.8425   6.4483   6.9693
     7.9614   8.3061

          k = 0.3750 0.2500 0.0000 ( 11826 PWs)   bands (ev):

   -43.4470  -2.4190  -2.3936  -2.3362  -2.2774  -2.2043  -2.1691  -2.0694
    -1.9786  -1.8603  -1.7081  -1.6824  -1.5202  -1.2131  -1.1816  -1.1336
    -0.9596  -0.9302  -0.6882  -0.6591  -0.6010  -0.5246  -0.4986  -0.3724
    -0.3093  -0.1263   0.0356   0.1755   0.2062   0.2422   0.4213   1.3420
     2.0098   2.9743   4.1019   5.2661   6.4383   6.6194   7.0809   7.7796
     8.3925   8.9893

          k = 0.3750 0.3750 0.0000 ( 11799 PWs)   bands (ev):

   -43.4432  -2.6693  -2.6305  -2.5897  -2.5539  -2.3569  -2.2989  -2.2900
    -2.2770  -2.0056  -1.8446  -1.8056  -1.8024  -1.3299  -1.2200  -0.7688
    -0.6377  -0.4948  -0.2792  -0.2656  -0.2171  -0.1505  -0.0279  -0.0136
     0.0973   0.1891   0.1898   0.2193   0.2248   0.3408   0.4993   2.5417
     3.3545   4.4129   5.5752   6.4725   6.7611   7.1621   8.0187   8.2774
     9.3470   9.6412

          k = 0.3750-0.5000 0.0000 ( 11750 PWs)   bands (ev):

   -43.4416  -2.7820  -2.7588  -2.6817  -2.6777  -2.4754  -2.4228  -2.3885
    -2.3639  -2.1567  -1.9323  -1.9243  -1.8226  -1.2398  -1.1614  -0.5937
    -0.5156  -0.4282  -0.2780  -0.1637  -0.0536   0.0459   0.0882   0.1051
     0.1498   0.3080   0.3749   0.4245   0.4407   0.4604   0.6004   4.5262
     4.6147   5.2102   5.3949   6.2253   6.4977   7.3792   7.8113   8.6605
     8.8730   9.7941

          k = 0.3750-0.3750 0.0000 ( 11799 PWs)   bands (ev):

   -43.4432  -2.6693  -2.6305  -2.5897  -2.5539  -2.3569  -2.2989  -2.2900
    -2.2770  -2.0056  -1.8446  -1.8056  -1.8024  -1.3299  -1.2200  -0.7688
    -0.6377  -0.4948  -0.2792  -0.2656  -0.2171  -0.1505  -0.0279  -0.0136
     0.0973   0.1891   0.1898   0.2193   0.2248   0.3408   0.4993   2.5417
     3.3545   4.4129   5.5752   6.4725   6.7611   7.1621   8.0187   8.2774
     9.3473   9.6412

          k = 0.3750-0.2500 0.0000 ( 11826 PWs)   bands (ev):

   -43.4470  -2.4190  -2.3936  -2.3362  -2.2774  -2.2043  -2.1691  -2.0694
    -1.9786  -1.8603  -1.7081  -1.6824  -1.5202  -1.2131  -1.1816  -1.1336
    -0.9596  -0.9302  -0.6882  -0.6591  -0.6010  -0.5246  -0.4986  -0.3724
    -0.3093  -0.1263   0.0356   0.1755   0.2062   0.2422   0.4213   1.3420
     2.0098   2.9743   4.1019   5.2661   6.4383   6.6194   7.0809   7.7796
     8.3925   8.9893

          k = 0.3750-0.1250 0.0000 ( 11868 PWs)   bands (ev):

   -43.4509  -2.6239  -2.6179  -2.3979  -2.3487  -2.0404  -1.9772  -1.9261
    -1.7801  -1.5644  -1.5441  -1.4962  -1.3741  -1.3486  -1.2508  -1.2200
    -1.0829  -1.0418  -0.9962  -0.8408  -0.8054  -0.6488  -0.5979  -0.4259
    -0.3088  -0.1460  -0.0600   0.1098   0.1652   0.2628   0.2849   0.8909
     1.1222   1.8557   2.9653   4.1627   5.3783   5.8425   6.4483   6.9693
     7.9614   8.3060

          k =-0.5000 0.0000 0.0000 ( 11796 PWs)   bands (ev):

   -43.4506  -2.8752  -2.8712  -2.5465  -2.5347  -2.0691  -2.0125  -1.6417
    -1.6045  -1.5162  -1.4841  -1.4635  -1.3794  -1.3627  -1.3518  -1.1386
    -1.1062  -1.0818  -1.0090  -0.8501  -0.7105  -0.4181  -0.3326  -0.3006
    -0.1913   0.0601   0.1233   0.1593   0.2532   0.3121   0.3329   2.7782
     2.7808   2.8473   2.8555   2.9216   3.2392   3.4858   6.1493   6.8585
     7.1814   7.7689

          k =-0.5000 0.1250 0.0000 ( 11862 PWs)   bands (ev):

   -43.4493  -2.7004  -2.6946  -2.4393  -2.4131  -2.0626  -1.9632  -1.7090
    -1.7013  -1.6371  -1.5819  -1.4970  -1.4846  -1.3746  -1.3666  -1.2095
    -1.1327  -1.0898  -1.0233  -0.7055  -0.6220  -0.5874  -0.5555  -0.2486
    -0.1533  -0.0994  -0.0101   0.1853   0.2593   0.3301   0.3837   3.0298
     3.0398   3.2814   3.2908   3.6360   3.6825   4.0840   6.3634   7.0231
     7.3248   7.9372

          k =-0.5000 0.2500 0.0000 ( 11818 PWs)   bands (ev):

   -43.4455  -2.4675  -2.4634  -2.4593  -2.4491  -2.2907  -2.2662  -2.1482
    -2.0622  -1.9307  -1.7698  -1.7682  -1.5750  -1.0778  -0.9676  -0.9131
    -0.8828  -0.8154  -0.7469  -0.7117  -0.5773  -0.5565  -0.5317  -0.2554
    -0.1358   0.0897   0.1434   0.3298   0.3762   0.3906   0.4382   3.6286
     3.7089   4.0993   4.2617   4.8339   5.0659   5.5739   6.9745   7.5223
     7.8191   8.5582

          k =-0.5000 0.3750 0.0000 ( 11750 PWs)   bands (ev):

   -43.4416  -2.7820  -2.7588  -2.6817  -2.6777  -2.4754  -2.4228  -2.3885
    -2.3639  -2.1567  -1.9323  -1.9243  -1.8226  -1.2398  -1.1614  -0.5937
    -0.5156  -0.4282  -0.2780  -0.1637  -0.0536   0.0459   0.0882   0.1051
     0.1498   0.3080   0.3749   0.4245   0.4407   0.4604   0.6004   4.5262
     4.6147   5.2102   5.3949   6.2253   6.4977   7.3792   7.8113   8.6605
     8.8730   9.7943

          k =-0.5000-0.5000 0.0000 ( 11668 PWs)   bands (ev):

   -43.4398  -2.9237  -2.8986  -2.7744  -2.7744  -2.6344  -2.5679  -2.4385
    -2.4385  -2.3372  -2.0816  -1.8852  -1.8852  -1.1778  -1.1778  -0.4316
    -0.3813  -0.3813  -0.2372  -0.0614   0.0535   0.2483   0.2851   0.3159
     0.3159   0.5218   0.5495   0.5913   0.5970   0.6155   0.8239   5.1909
     5.1909   6.0683   6.0683   7.3205   7.3205   8.5674   8.7404   8.7405
     9.9927  10.0115

     the Fermi energy is     3.2714 ev

!    total energy              =    -520.63277918 Ry
     estimated scf accuracy    <       0.00000011 Ry
     smearing contrib. (-TS)   =      -0.00044399 Ry
     internal energy E=F+TS    =    -520.63233519 Ry

     The total energy is F=E-TS. E is the sum of the following terms:
     one-electron contribution =   -6268.01830767 Ry
     hartree contribution      =    3183.94257614 Ry
     xc contribution           =    -137.58554249 Ry
     ewald contribution        =    2701.21566201 Ry
     DFT-D3 Dispersion         =      -0.18672318 Ry

     convergence has been achieved in   6 iterations

     negative rho (up, down):  9.357E-06 0.000E+00

     Forces acting on atoms (cartesian axes, Ry/au):

     atom    1 type  2   force =    -0.00000111   -0.00000060    0.00052575
     atom    2 type  2   force =    -0.00000018   -0.00000047   -0.00009674
     atom    3 type  2   force =    -0.00000018   -0.00000155   -0.00186003
     atom    4 type  2   force =    -0.00000009    0.00000120    0.00122639
     atom    5 type  2   force =     0.00000485    0.00000107    0.01413012
     atom    6 type  2   force =    -0.00000281    0.00000098   -0.00194176
     atom    7 type  1   force =    -0.00000047   -0.00000063   -0.01198373
     The non-local contrib.  to forces
     atom    1 type  2   force =    -0.00000128    0.00000015   -0.02637617
     atom    2 type  2   force =     0.00000067   -0.00000037   -0.09180905
     atom    3 type  2   force =     0.00000052   -0.00000105    0.00162395
     atom    4 type  2   force =     0.00000016    0.00000172    0.00014292
     atom    5 type  2   force =     0.00000473    0.00000235   -0.00628762
     atom    6 type  2   force =    -0.00000215    0.00000175    0.00931808
     atom    7 type  1   force =    -0.00000003   -0.00000028    0.04655235
     The ionic contribution  to forces
     atom    1 type  2   force =    -0.00000184   -0.00000532  -94.61157079
     atom    2 type  2   force =     0.00000126    0.00000211 -150.70590838
     atom    3 type  2   force =     0.00000461    0.00002467   21.72311728
     atom    4 type  2   force =     0.00000054    0.00000463  -36.48596039
     atom    5 type  2   force =     0.00000695    0.00003163  136.75867524
     atom    6 type  2   force =    -0.00001163   -0.00005753   80.08097843
     atom    7 type  1   force =     0.00000010   -0.00000020   43.24066861
     The local contribution  to forces
     atom    1 type  2   force =     0.00000143    0.00000592   94.63414989
     atom    2 type  2   force =    -0.00000119   -0.00000194  150.78787015
     atom    3 type  2   force =    -0.00000433   -0.00002398  -21.72728988
     atom    4 type  2   force =    -0.00000004   -0.00000428   36.48605688
     atom    5 type  2   force =    -0.00000817   -0.00003099 -136.73456456
     atom    6 type  2   force =     0.00001107    0.00005647  -80.08836739
     atom    7 type  1   force =     0.00000028    0.00000042  -43.29669415
     The core correction contribution to forces
     atom    1 type  2   force =    -0.00000003    0.00000003    0.00006763
     atom    2 type  2   force =     0.00000002    0.00000002    0.00619760
     atom    3 type  2   force =     0.00000001   -0.00000001    0.00038140
     atom    4 type  2   force =     0.00000008   -0.00000001    0.00000176
     atom    5 type  2   force =    -0.00000007   -0.00000000   -0.00032462
     atom    6 type  2   force =    -0.00000000    0.00000011   -0.00041561
     atom    7 type  1   force =     0.00000000    0.00000000    0.00000000
     The Hubbard contrib.    to forces
     atom    1 type  2   force =     0.00000000    0.00000000    0.00000000
     atom    2 type  2   force =     0.00000000    0.00000000    0.00000000
     atom    3 type  2   force =     0.00000000    0.00000000    0.00000000
     atom    4 type  2   force =     0.00000000    0.00000000    0.00000000
     atom    5 type  2   force =     0.00000000    0.00000000    0.00000000
     atom    6 type  2   force =     0.00000000    0.00000000    0.00000000
     atom    7 type  1   force =     0.00000000    0.00000000    0.00000000
     The SCF correction term to forces
     atom    1 type  2   force =     0.00000103   -0.00000080   -0.00089848
     atom    2 type  2   force =    -0.00000052    0.00000030   -0.00065750
     atom    3 type  2   force =    -0.00000056   -0.00000054    0.00054319
     atom    4 type  2   force =    -0.00000040   -0.00000027    0.00008640
     atom    5 type  2   force =     0.00000185   -0.00000125    0.00065869
     atom    6 type  2   force =     0.00000031    0.00000062    0.00027780
     atom    7 type  1   force =    -0.00000040    0.00000001   -0.00020087

     DFT-D3 dispersion contribution to forces:
     atom    1 type  2   force =     0.00000000    0.00000001    0.00515979
     atom    2 type  2   force =    -0.00000000   -0.00000001    0.00421656
     atom    3 type  2   force =    -0.00000001   -0.00000006   -0.00022986
     atom    4 type  2   force =    -0.00000000   -0.00000001    0.00090492
     atom    5 type  2   force =    -0.00000002   -0.00000008   -0.00402089
     atom    6 type  2   force =     0.00000003    0.00000014   -0.00372696
     atom    7 type  1   force =    -0.00000000   -0.00000000   -0.00230356

     Total force =     0.018769     Total SCF correction =     0.001447


     Computing stress (Cartesian axis) and pressure


     negative rho (up, down):  9.357E-06 0.000E+00
          total   stress  (Ry/bohr**3)                   (kbar)     P=      -15.93
  -0.00011863   0.00000000  -0.00000000          -17.45        0.00       -0.00
   0.00000000  -0.00011862  -0.00000001            0.00      -17.45       -0.00
  -0.00000000  -0.00000001  -0.00008759           -0.00       -0.00      -12.89

     Energy error            =      3.9E-04 Ry
     Gradient error          =      1.4E-02 Ry/Bohr

     number of scf cycles    =   2
     number of bfgs steps    =   1

     energy             old  =    -520.6323842378 Ry
     energy             new  =    -520.6327791840 Ry

     CASE: energy            _new < energy            _old


     WARNING: bfgs curvature condition failed, Theta= 0.866
     new trust radius        =       0.0168429303 bohr
     new conv_thr            =       0.0000000395 Ry


ATOMIC_POSITIONS (angstrom)
Ag            2.1766636712        0.7255554205       12.0532417525
Ag            0.7255541253        2.1766631842        9.9999836650
Ag            2.1766637183        0.7255540601       16.1539480578
Ag            0.7255546347        2.1766631574       14.1060213659
Ag            2.1766645739        0.7255515677       20.2578405640
Ag            0.7255554195        2.1766772140       18.1846720311
Li            0.7255527922        2.1766600014       22.2267173347



     Writing config-only to output data dir ./Ag_mp-124_100_bridge_1/Ag_mp-124_100_bridge_1.save/
     NEW-OLD atomic charge density approx. for the potential

     negative rho (up, down):  9.351E-06 0.000E+00

     total cpu time spent up to now is       37.1 secs

     per-process dynamical memory:   188.7 Mb

     Self-consistent Calculation

     iteration #  1     ecut=    55.00 Ry     beta= 0.30
     Davidson diagonalization with overlap
     ethr =  1.00E-06,  avg # of iterations =  4.8

     negative rho (up, down):  9.337E-06 0.000E+00

     total cpu time spent up to now is       37.9 secs

     total energy              =    -520.63313834 Ry
     estimated scf accuracy    <       0.00008669 Ry

     iteration #  2     ecut=    55.00 Ry     beta= 0.30
     Davidson diagonalization with overlap
     ethr =  1.26E-07,  avg # of iterations =  4.2

     negative rho (up, down):  1.028E-05 0.000E+00

     total cpu time spent up to now is       38.4 secs

     total energy              =    -520.63293180 Ry
     estimated scf accuracy    <       0.01232781 Ry

     iteration #  3     ecut=    55.00 Ry     beta= 0.30
     Davidson diagonalization with overlap
     ethr =  1.26E-07,  avg # of iterations =  2.0

     negative rho (up, down):  1.141E-05 0.000E+00

     total cpu time spent up to now is       38.8 secs

     total energy              =    -520.63316329 Ry
     estimated scf accuracy    <       0.00015700 Ry

     iteration #  4     ecut=    55.00 Ry     beta= 0.30
     Davidson diagonalization with overlap
     ethr =  1.26E-07,  avg # of iterations =  1.2

     negative rho (up, down):  1.061E-05 0.000E+00

     total cpu time spent up to now is       39.1 secs

     total energy              =    -520.63317225 Ry
     estimated scf accuracy    <       0.00003151 Ry

     iteration #  5     ecut=    55.00 Ry     beta= 0.30
     Davidson diagonalization with overlap
     ethr =  4.57E-08,  avg # of iterations =  1.1

     negative rho (up, down):  1.020E-05 0.000E+00

     total cpu time spent up to now is       39.6 secs

     total energy              =    -520.63317394 Ry
     estimated scf accuracy    <       0.00000549 Ry

     iteration #  6     ecut=    55.00 Ry     beta= 0.30
     Davidson diagonalization with overlap
     ethr =  7.96E-09,  avg # of iterations =  1.4

     negative rho (up, down):  1.003E-05 0.000E+00

     total cpu time spent up to now is       40.1 secs

     total energy              =    -520.63317449 Ry
     estimated scf accuracy    <       0.00000026 Ry

     iteration #  7     ecut=    55.00 Ry     beta= 0.30
     Davidson diagonalization with overlap
     ethr =  3.76E-10,  avg # of iterations =  4.2

     negative rho (up, down):  9.476E-06 0.000E+00

     total cpu time spent up to now is       40.8 secs

     total energy              =    -520.63317461 Ry
     estimated scf accuracy    <       0.00000008 Ry

     iteration #  8     ecut=    55.00 Ry     beta= 0.30
     Davidson diagonalization with overlap
     ethr =  1.14E-10,  avg # of iterations =  1.9

     negative rho (up, down):  9.417E-06 0.000E+00

     total cpu time spent up to now is       41.2 secs

     End of self-consistent calculation

          k = 0.0000 0.0000 0.0000 ( 11951 PWs)   bands (ev):

   -43.4460  -4.1617  -3.5344  -2.9321  -2.8135  -2.7842  -2.6623  -2.6094
    -2.3319  -2.3037  -1.9606  -1.6601  -1.4624  -1.3262  -1.3262  -1.0777
    -1.0777  -0.9397  -0.6951  -0.6951  -0.5931  -0.4616  -0.3621  -0.2555
    -0.2411  -0.2411  -0.0957  -0.0377   0.1003   0.1934   0.1934   0.2705
     0.3610   0.4994   0.4994   1.2862   2.6053   3.7874   4.6694   6.5988
     7.2309   7.7490

          k = 0.0000 0.1250 0.0000 ( 11903 PWs)   bands (ev):

   -43.4442  -3.8564  -3.2721  -2.7972  -2.6394  -2.6334  -2.5366  -2.4061
    -2.2631  -2.0702  -1.8166  -1.5821  -1.4208  -1.3423  -1.2687  -1.2148
    -1.0843  -1.0061  -0.8484  -0.8016  -0.6595  -0.4995  -0.4267  -0.3846
    -0.3438  -0.2923  -0.2314  -0.0857  -0.0379   0.0638   0.1775   0.2230
     0.3706   0.4988   0.5592   1.8076   3.0480   4.2363   5.2975   6.8813
     7.5212   8.0175

          k = 0.0000 0.2500 0.0000 ( 11877 PWs)   bands (ev):

   -43.4404  -3.1090  -2.8438  -2.6066  -2.5553  -2.4371  -2.2199  -2.1007
    -1.8652  -1.5949  -1.4365  -1.3579  -1.2059  -1.1742  -1.1654  -1.1480
    -1.1260  -1.0756  -0.9919  -0.9296  -0.8160  -0.7890  -0.6547  -0.5567
    -0.5097  -0.4032  -0.2576  -0.1722  -0.1512   0.0677   0.1637   0.2453
     0.3968   0.4175   1.3507   2.7445   4.0096   5.3445   6.6718   7.7369
     8.3999   8.6295

          k = 0.0000 0.3750 0.0000 ( 11873 PWs)   bands (ev):

   -43.4365  -2.8166  -2.8017  -2.5577  -2.4896  -2.2210  -2.0664  -1.7615
    -1.6259  -1.5543  -1.3898  -1.3658  -1.3460  -1.2859  -1.2756  -1.1269
    -1.0980  -1.0576  -1.0334  -0.7391  -0.7072  -0.6848  -0.4976  -0.3897
    -0.1716  -0.1532   0.0413   0.0984   0.1687   0.3330   0.3598   0.6794
     0.8075   1.1908   2.4194   3.7053   4.9375   5.5020   6.2081   6.6948
     7.8206   8.0929

          k = 0.0000-0.5000 0.0000 ( 11796 PWs)   bands (ev):

   -43.4347  -2.8711  -2.8681  -2.5390  -2.5278  -2.0667  -2.0106  -1.6429
    -1.6059  -1.5146  -1.4795  -1.4626  -1.3781  -1.3595  -1.3473  -1.1320
    -1.0983  -1.0788  -1.0075  -0.8492  -0.7080  -0.4179  -0.3293  -0.3028
    -0.1913   0.0591   0.1237   0.1599   0.2557   0.3137   0.3348   2.7811
     2.7837   2.8478   2.8579   2.9233   3.2373   3.4880   6.1509   6.8657
     7.1890   7.7667

          k = 0.1250-0.0000 0.0000 ( 11903 PWs)   bands (ev):

   -43.4442  -3.8564  -3.2721  -2.7972  -2.6394  -2.6334  -2.5366  -2.4061
    -2.2631  -2.0702  -1.8166  -1.5821  -1.4208  -1.3423  -1.2687  -1.2148
    -1.0843  -1.0061  -0.8484  -0.8016  -0.6595  -0.4995  -0.4267  -0.3846
    -0.3438  -0.2923  -0.2314  -0.0857  -0.0379   0.0638   0.1775   0.2230
     0.3706   0.4988   0.5592   1.8076   3.0480   4.2363   5.2975   6.8813
     7.5212   8.0175

          k = 0.1250 0.1250 0.0000 ( 11887 PWs)   bands (ev):

   -43.4426  -3.5585  -2.9988  -2.6093  -2.5187  -2.3877  -2.3497  -2.2700
    -2.0988  -1.9577  -1.8341  -1.6596  -1.4113  -1.2947  -1.2621  -1.2078
    -1.1466  -1.0690  -0.9861  -0.7450  -0.7305  -0.6781  -0.5952  -0.5408
    -0.4163  -0.3052  -0.2787  -0.1577  -0.1230   0.0544   0.1210   0.1686
     0.2773   0.4919   1.0284   2.2338   3.4192   4.6529   5.8241   7.1647
     7.8126   8.2848

          k = 0.1250 0.2500 0.0000 ( 11878 PWs)   bands (ev):

   -43.4388  -2.8588  -2.5793  -2.3556  -2.3467  -2.1999  -2.0797  -2.0116
    -1.8568  -1.7163  -1.5342  -1.4735  -1.3604  -1.3093  -1.2311  -1.1664
    -1.1377  -1.0856  -1.0449  -0.9856  -0.8583  -0.8070  -0.7426  -0.5355
    -0.4180  -0.3917  -0.3398  -0.2114  -0.1712  -0.0191   0.0996   0.2459
     0.4297   0.7780   1.8379   3.1280   4.3427   5.7079   7.0573   8.0219
     8.6925   8.9068

          k = 0.1250 0.3750 0.0000 ( 11868 PWs)   bands (ev):

   -43.4349  -2.6199  -2.6150  -2.3912  -2.3423  -2.0358  -1.9740  -1.9226
    -1.7755  -1.5638  -1.5411  -1.4914  -1.3722  -1.3444  -1.2513  -1.2180
    -1.0810  -1.0395  -0.9929  -0.8376  -0.8032  -0.6511  -0.5975  -0.4234
    -0.3115  -0.1438  -0.0582   0.1092   0.1662   0.2647   0.2870   0.8928
     1.1233   1.8537   2.9654   4.1673   5.3818   5.8448   6.4510   6.9718
     7.9630   8.3095

          k = 0.1250-0.5000 0.0000 ( 11862 PWs)   bands (ev):

   -43.4334  -2.6970  -2.6910  -2.4330  -2.4061  -2.0592  -1.9593  -1.7049
    -1.6982  -1.6346  -1.5792  -1.4946  -1.4779  -1.3737  -1.3668  -1.2082
    -1.1304  -1.0885  -1.0195  -0.7027  -0.6206  -0.5888  -0.5563  -0.2519
    -0.1511  -0.0985  -0.0076   0.1867   0.2618   0.3307   0.3856   3.0313
     3.0427   3.2825   3.2908   3.6355   3.6840   4.0862   6.3650   7.0310
     7.3318   7.9351

          k = 0.1250-0.3750 0.0000 ( 11868 PWs)   bands (ev):

   -43.4349  -2.6199  -2.6150  -2.3912  -2.3423  -2.0358  -1.9740  -1.9226
    -1.7755  -1.5638  -1.5411  -1.4914  -1.3722  -1.3444  -1.2513  -1.2180
    -1.0810  -1.0395  -0.9929  -0.8376  -0.8032  -0.6511  -0.5975  -0.4234
    -0.3115  -0.1438  -0.0582   0.1092   0.1662   0.2647   0.2870   0.8928
     1.1233   1.8537   2.9654   4.1673   5.3818   5.8448   6.4510   6.9718
     7.9630   8.3095

          k = 0.1250-0.2500 0.0000 ( 11878 PWs)   bands (ev):

   -43.4388  -2.8588  -2.5793  -2.3556  -2.3467  -2.1999  -2.0797  -2.0116
    -1.8568  -1.7163  -1.5342  -1.4735  -1.3604  -1.3093  -1.2311  -1.1664
    -1.1377  -1.0856  -1.0449  -0.9856  -0.8583  -0.8070  -0.7426  -0.5355
    -0.4180  -0.3917  -0.3398  -0.2114  -0.1712  -0.0191   0.0996   0.2459
     0.4297   0.7780   1.8379   3.1280   4.3427   5.7079   7.0573   8.0219
     8.6925   8.9069

          k = 0.1250-0.1250 0.0000 ( 11887 PWs)   bands (ev):

   -43.4426  -3.5585  -2.9988  -2.6093  -2.5187  -2.3877  -2.3497  -2.2700
    -2.0988  -1.9577  -1.8341  -1.6596  -1.4113  -1.2947  -1.2621  -1.2078
    -1.1466  -1.0690  -0.9861  -0.7450  -0.7305  -0.6781  -0.5952  -0.5408
    -0.4163  -0.3052  -0.2787  -0.1577  -0.1230   0.0544   0.1210   0.1686
     0.2773   0.4919   1.0284   2.2338   3.4192   4.6529   5.8241   7.1647
     7.8126   8.2848

          k = 0.2500-0.0000 0.0000 ( 11877 PWs)   bands (ev):

   -43.4404  -3.1090  -2.8438  -2.6066  -2.5553  -2.4371  -2.2199  -2.1007
    -1.8652  -1.5949  -1.4365  -1.3579  -1.2059  -1.1742  -1.1654  -1.1480
    -1.1260  -1.0756  -0.9919  -0.9296  -0.8160  -0.7890  -0.6547  -0.5567
    -0.5097  -0.4032  -0.2576  -0.1722  -0.1512   0.0677   0.1637   0.2453
     0.3968   0.4175   1.3507   2.7445   4.0096   5.3445   6.6718   7.7369
     8.3999   8.6293

          k = 0.2500 0.1250 0.0000 ( 11878 PWs)   bands (ev):

   -43.4388  -2.8588  -2.5793  -2.3555  -2.3467  -2.1999  -2.0797  -2.0116
    -1.8568  -1.7163  -1.5342  -1.4735  -1.3604  -1.3093  -1.2311  -1.1664
    -1.1377  -1.0856  -1.0449  -0.9856  -0.8583  -0.8070  -0.7426  -0.5355
    -0.4180  -0.3917  -0.3398  -0.2114  -0.1712  -0.0191   0.0996   0.2459
     0.4297   0.7780   1.8379   3.1280   4.3427   5.7079   7.0573   8.0219
     8.6925   8.9069

          k = 0.2500 0.2500 0.0000 ( 11857 PWs)   bands (ev):

   -43.4349  -2.4469  -2.1905  -2.1231  -2.0785  -1.9810  -1.9426  -1.8775
    -1.8066  -1.7456  -1.6783  -1.6776  -1.6543  -1.5014  -1.4257  -1.2371
    -1.1398  -1.1356  -0.7677  -0.7573  -0.7270  -0.6171  -0.5357  -0.4903
    -0.4486  -0.3887  -0.3306  -0.2538  -0.1999   0.0309   0.1385   0.4779
     0.7182   1.6442   2.7959   4.0390   5.2404   6.6740   8.0766   8.7904
     8.8717   9.5684

          k = 0.2500 0.3750 0.0000 ( 11826 PWs)   bands (ev):

   -43.4311  -2.4154  -2.3903  -2.3323  -2.2745  -2.1977  -2.1646  -2.0618
    -1.9714  -1.8548  -1.7048  -1.6807  -1.5180  -1.2097  -1.1805  -1.1321
    -0.9598  -0.9313  -0.6870  -0.6592  -0.6000  -0.5236  -0.4995  -0.3705
    -0.3073  -0.1242   0.0340   0.1772   0.2081   0.2426   0.4234   1.3438
     2.0099   2.9711   4.1035   5.2719   6.4398   6.6218   7.0816   7.7828
     8.3959   8.9948

          k = 0.2500-0.5000 0.0000 ( 11818 PWs)   bands (ev):

   -43.4295  -2.4654  -2.4570  -2.4561  -2.4464  -2.2861  -2.2603  -2.1412
    -2.0543  -1.9259  -1.7687  -1.7646  -1.5729  -1.0770  -0.9658  -0.9128
    -0.8835  -0.8128  -0.7469  -0.7097  -0.5758  -0.5575  -0.5323  -0.2560
    -0.1343   0.0901   0.1456   0.3294   0.3779   0.3933   0.4402   3.6287
     3.7113   4.0980   4.2624   4.8367   5.0635   5.5773   6.9761   7.5321
     7.8256   8.5571

          k = 0.2500-0.3750 0.0000 ( 11826 PWs)   bands (ev):

   -43.4311  -2.4154  -2.3903  -2.3323  -2.2745  -2.1977  -2.1646  -2.0618
    -1.9714  -1.8548  -1.7048  -1.6807  -1.5180  -1.2097  -1.1805  -1.1321
    -0.9598  -0.9313  -0.6870  -0.6592  -0.6000  -0.5236  -0.4995  -0.3705
    -0.3073  -0.1242   0.0340   0.1772   0.2081   0.2426   0.4234   1.3438
     2.0099   2.9711   4.1035   5.2719   6.4398   6.6218   7.0816   7.7828
     8.3959   8.9948

          k = 0.2500-0.2500 0.0000 ( 11857 PWs)   bands (ev):

   -43.4349  -2.4469  -2.1905  -2.1231  -2.0785  -1.9810  -1.9426  -1.8775
    -1.8066  -1.7456  -1.6783  -1.6776  -1.6543  -1.5014  -1.4257  -1.2371
    -1.1398  -1.1356  -0.7677  -0.7573  -0.7270  -0.6171  -0.5357  -0.4903
    -0.4486  -0.3887  -0.3306  -0.2538  -0.1999   0.0309   0.1385   0.4779
     0.7182   1.6442   2.7959   4.0390   5.2404   6.6740   8.0766   8.7904
     8.8717   9.5684

          k = 0.2500-0.1250 0.0000 ( 11878 PWs)   bands (ev):

   -43.4388  -2.8588  -2.5793  -2.3555  -2.3467  -2.1999  -2.0797  -2.0116
    -1.8568  -1.7163  -1.5342  -1.4735  -1.3604  -1.3093  -1.2311  -1.1664
    -1.1377  -1.0856  -1.0449  -0.9856  -0.8583  -0.8070  -0.7426  -0.5355
    -0.4180  -0.3917  -0.3398  -0.2114  -0.1712  -0.0191   0.0996   0.2459
     0.4297   0.7780   1.8379   3.1280   4.3427   5.7079   7.0573   8.0219
     8.6925   8.9071

          k = 0.3750-0.0000 0.0000 ( 11873 PWs)   bands (ev):

   -43.4365  -2.8166  -2.8017  -2.5577  -2.4896  -2.2210  -2.0664  -1.7615
    -1.6259  -1.5543  -1.3898  -1.3658  -1.3460  -1.2859  -1.2756  -1.1269
    -1.0980  -1.0576  -1.0334  -0.7391  -0.7072  -0.6848  -0.4976  -0.3897
    -0.1716  -0.1532   0.0413   0.0984   0.1687   0.3330   0.3598   0.6794
     0.8075   1.1908   2.4194   3.7053   4.9375   5.5020   6.2081   6.6948
     7.8206   8.0929

          k = 0.3750 0.1250 0.0000 ( 11868 PWs)   bands (ev):

   -43.4349  -2.6199  -2.6150  -2.3912  -2.3423  -2.0358  -1.9740  -1.9226
    -1.7755  -1.5638  -1.5411  -1.4914  -1.3722  -1.3444  -1.2513  -1.2180
    -1.0810  -1.0395  -0.9929  -0.8376  -0.8032  -0.6511  -0.5975  -0.4234
    -0.3115  -0.1438  -0.0582   0.1092   0.1662   0.2647   0.2870   0.8928
     1.1233   1.8537   2.9654   4.1673   5.3818   5.8448   6.4510   6.9718
     7.9630   8.3095

          k = 0.3750 0.2500 0.0000 ( 11826 PWs)   bands (ev):

   -43.4311  -2.4154  -2.3903  -2.3323  -2.2745  -2.1977  -2.1646  -2.0618
    -1.9714  -1.8548  -1.7048  -1.6807  -1.5180  -1.2097  -1.1805  -1.1321
    -0.9598  -0.9313  -0.6870  -0.6592  -0.6000  -0.5236  -0.4995  -0.3705
    -0.3073  -0.1242   0.0340   0.1772   0.2081   0.2426   0.4234   1.3438
     2.0099   2.9711   4.1035   5.2719   6.4398   6.6218   7.0816   7.7828
     8.3959   8.9948

          k = 0.3750 0.3750 0.0000 ( 11799 PWs)   bands (ev):

   -43.4273  -2.6665  -2.6260  -2.5861  -2.5505  -2.3513  -2.2926  -2.2824
    -2.2693  -2.0049  -1.8414  -1.8017  -1.8000  -1.3300  -1.2191  -0.7705
    -0.6383  -0.4964  -0.2785  -0.2646  -0.2165  -0.1484  -0.0257  -0.0116
     0.0988   0.1884   0.1917   0.2209   0.2266   0.3422   0.5012   2.5433
     3.3537   4.4096   5.5791   6.4713   6.7684   7.1605   8.0215   8.2816
     9.3509   9.6530

          k = 0.3750-0.5000 0.0000 ( 11750 PWs)   bands (ev):

   -43.4256  -2.7798  -2.7534  -2.6784  -2.6739  -2.4706  -2.4150  -2.3819
    -2.3560  -2.1559  -1.9299  -1.9205  -1.8197  -1.2403  -1.1612  -0.5967
    -0.5161  -0.4299  -0.2770  -0.1633  -0.0515   0.0469   0.0896   0.1070
     0.1510   0.3087   0.3782   0.4237   0.4425   0.4637   0.6025   4.5261
     4.6164   5.2078   5.3941   6.2275   6.4944   7.3858   7.8176   8.6697
     8.8798   9.7952

          k = 0.3750-0.3750 0.0000 ( 11799 PWs)   bands (ev):

   -43.4273  -2.6665  -2.6260  -2.5861  -2.5505  -2.3513  -2.2926  -2.2824
    -2.2693  -2.0049  -1.8414  -1.8017  -1.8000  -1.3300  -1.2191  -0.7705
    -0.6383  -0.4964  -0.2785  -0.2646  -0.2165  -0.1484  -0.0257  -0.0116
     0.0988   0.1884   0.1917   0.2209   0.2266   0.3422   0.5012   2.5433
     3.3537   4.4096   5.5791   6.4713   6.7684   7.1605   8.0215   8.2816
     9.3510   9.6530

          k = 0.3750-0.2500 0.0000 ( 11826 PWs)   bands (ev):

   -43.4311  -2.4154  -2.3903  -2.3323  -2.2745  -2.1977  -2.1646  -2.0618
    -1.9714  -1.8548  -1.7048  -1.6807  -1.5180  -1.2097  -1.1805  -1.1321
    -0.9598  -0.9313  -0.6870  -0.6592  -0.6000  -0.5236  -0.4995  -0.3705
    -0.3073  -0.1242   0.0340   0.1772   0.2081   0.2426   0.4234   1.3438
     2.0099   2.9711   4.1035   5.2719   6.4398   6.6218   7.0816   7.7828
     8.3959   8.9948

          k = 0.3750-0.1250 0.0000 ( 11868 PWs)   bands (ev):

   -43.4349  -2.6199  -2.6150  -2.3912  -2.3423  -2.0358  -1.9740  -1.9226
    -1.7755  -1.5638  -1.5411  -1.4914  -1.3722  -1.3444  -1.2513  -1.2180
    -1.0810  -1.0395  -0.9929  -0.8376  -0.8032  -0.6511  -0.5975  -0.4234
    -0.3115  -0.1438  -0.0582   0.1092   0.1662   0.2647   0.2870   0.8928
     1.1233   1.8537   2.9654   4.1673   5.3818   5.8448   6.4510   6.9718
     7.9630   8.3095

          k =-0.5000 0.0000 0.0000 ( 11796 PWs)   bands (ev):

   -43.4347  -2.8711  -2.8681  -2.5390  -2.5278  -2.0667  -2.0106  -1.6429
    -1.6059  -1.5146  -1.4795  -1.4626  -1.3781  -1.3595  -1.3473  -1.1320
    -1.0983  -1.0788  -1.0075  -0.8492  -0.7080  -0.4179  -0.3293  -0.3028
    -0.1913   0.0591   0.1237   0.1599   0.2557   0.3137   0.3348   2.7811
     2.7837   2.8478   2.8579   2.9233   3.2373   3.4880   6.1509   6.8657
     7.1890   7.7667

          k =-0.5000 0.1250 0.0000 ( 11862 PWs)   bands (ev):

   -43.4334  -2.6970  -2.6910  -2.4330  -2.4061  -2.0592  -1.9593  -1.7049
    -1.6982  -1.6346  -1.5792  -1.4946  -1.4779  -1.3737  -1.3668  -1.2082
    -1.1304  -1.0885  -1.0195  -0.7027  -0.6206  -0.5888  -0.5563  -0.2519
    -0.1511  -0.0985  -0.0076   0.1867   0.2618   0.3307   0.3856   3.0313
     3.0427   3.2825   3.2908   3.6355   3.6840   4.0862   6.3650   7.0310
     7.3318   7.9351

          k =-0.5000 0.2500 0.0000 ( 11818 PWs)   bands (ev):

   -43.4295  -2.4654  -2.4570  -2.4561  -2.4464  -2.2861  -2.2603  -2.1412
    -2.0543  -1.9259  -1.7687  -1.7646  -1.5729  -1.0770  -0.9658  -0.9128
    -0.8835  -0.8128  -0.7469  -0.7097  -0.5758  -0.5575  -0.5323  -0.2560
    -0.1343   0.0901   0.1456   0.3294   0.3779   0.3933   0.4402   3.6287
     3.7113   4.0980   4.2624   4.8367   5.0635   5.5773   6.9761   7.5321
     7.8256   8.5571

          k =-0.5000 0.3750 0.0000 ( 11750 PWs)   bands (ev):

   -43.4256  -2.7798  -2.7534  -2.6784  -2.6739  -2.4706  -2.4150  -2.3819
    -2.3560  -2.1559  -1.9299  -1.9205  -1.8197  -1.2403  -1.1612  -0.5967
    -0.5161  -0.4299  -0.2770  -0.1633  -0.0515   0.0469   0.0896   0.1070
     0.1510   0.3087   0.3782   0.4237   0.4425   0.4637   0.6025   4.5261
     4.6164   5.2078   5.3941   6.2275   6.4944   7.3858   7.8176   8.6697
     8.8798   9.7952

[...]
    -1.8400  -1.7075  -1.5310  -1.4673  -1.3672  -1.3293  -1.2305  -1.1603
    -1.1396  -1.0730  -1.0340  -0.9766  -0.8704  -0.7856  -0.7228  -0.5401
    -0.4125  -0.3777  -0.3375  -0.1982  -0.1480  -0.0089   0.1151   0.2566
     0.4552   0.7886   1.8624   3.2017   4.4717   5.8356   7.1216   8.0309
     8.6868   8.8978

          k = 0.1250-0.1250 0.0000 ( 11887 PWs)   bands (ev):

   -43.2201  -3.5439  -2.9829  -2.5975  -2.5025  -2.3616  -2.3357  -2.3140
    -2.1030  -1.9302  -1.8244  -1.6406  -1.4313  -1.2969  -1.2318  -1.1914
    -1.1281  -1.0521  -1.0015  -0.7595  -0.7351  -0.6699  -0.5833  -0.5196
    -0.3986  -0.3041  -0.2782  -0.1511  -0.1151   0.0757   0.1515   0.1778
     0.2981   0.5155   1.0554   2.2956   3.5417   4.8050   5.9116   7.1688
     7.8054   8.2716

          k = 0.2500-0.0000 0.0000 ( 11877 PWs)   bands (ev):

   -43.2178  -3.0936  -2.8249  -2.5884  -2.5402  -2.4770  -2.1796  -2.0836
    -1.8520  -1.5987  -1.4433  -1.3526  -1.2269  -1.1670  -1.1495  -1.1334
    -1.1104  -1.0854  -0.9787  -0.9153  -0.8051  -0.7661  -0.6244  -0.5845
    -0.5058  -0.4049  -0.2598  -0.1445  -0.1388   0.0809   0.1800   0.2536
     0.4191   0.4456   1.3740   2.8089   4.1376   5.4770   6.7331   7.7449
     8.3937   8.6248

          k = 0.2500 0.1250 0.0000 ( 11878 PWs)   bands (ev):

   -43.2161  -2.8435  -2.5603  -2.3353  -2.3325  -2.2273  -2.0609  -1.9780
    -1.8400  -1.7075  -1.5310  -1.4673  -1.3672  -1.3293  -1.2305  -1.1603
    -1.1396  -1.0730  -1.0340  -0.9766  -0.8704  -0.7856  -0.7228  -0.5401
    -0.4125  -0.3777  -0.3375  -0.1982  -0.1480  -0.0089   0.1151   0.2566
     0.4552   0.7886   1.8624   3.2017   4.4717   5.8356   7.1216   8.0309
     8.6868   8.8978

          k = 0.2500 0.2500 0.0000 ( 11857 PWs)   bands (ev):

   -43.2122  -2.4325  -2.1756  -2.1067  -2.0684  -1.9598  -1.9245  -1.8655
    -1.7790  -1.7330  -1.6610  -1.6608  -1.6202  -1.5149  -1.4634  -1.2418
    -1.2241  -1.1182  -0.8045  -0.7210  -0.7155  -0.6043  -0.5177  -0.4782
    -0.4368  -0.3733  -0.3015  -0.2482  -0.1778   0.0309   0.1465   0.5015
     0.7161   1.6468   2.8261   4.1322   5.3660   6.7941   8.1481   8.7322
     8.8845   9.5700

          k = 0.2500 0.3750 0.0000 ( 11826 PWs)   bands (ev):

   -43.2082  -2.4009  -2.3742  -2.3154  -2.2612  -2.1733  -2.1482  -2.0635
    -1.9501  -1.8694  -1.7038  -1.6694  -1.4997  -1.2249  -1.1687  -1.1174
    -1.0290  -0.9346  -0.6927  -0.6470  -0.5791  -0.5016  -0.4973  -0.3556
    -0.3068  -0.0918   0.0281   0.1978   0.2301   0.2590   0.4495   1.3356
     1.9957   2.9711   4.1480   5.3616   6.4331   6.6858   7.1193   7.8423
     8.4925   9.0943

          k = 0.2500-0.5000 0.0000 ( 11818 PWs)   bands (ev):

   -43.2066  -2.4499  -2.4430  -2.4359  -2.4295  -2.2754  -2.2389  -2.1489
    -2.0270  -1.9458  -1.7958  -1.7305  -1.5414  -1.1313  -0.9452  -0.9381
    -0.9111  -0.7881  -0.7541  -0.6932  -0.5533  -0.5502  -0.5155  -0.2605
    -0.1244   0.0966   0.1633   0.3355   0.4045   0.4161   0.4698   3.5845
     3.7075   4.0922   4.2494   4.8886   5.0620   5.6233   7.0115   7.6851
     7.9602   8.6203

          k = 0.2500-0.3750 0.0000 ( 11826 PWs)   bands (ev):

   -43.2082  -2.4009  -2.3742  -2.3154  -2.2612  -2.1733  -2.1482  -2.0635
    -1.9501  -1.8694  -1.7038  -1.6694  -1.4997  -1.2249  -1.1687  -1.1174
    -1.0290  -0.9346  -0.6927  -0.6470  -0.5791  -0.5016  -0.4973  -0.3556
    -0.3068  -0.0918   0.0281   0.1978   0.2301   0.2590   0.4495   1.3356
     1.9957   2.9711   4.1480   5.3616   6.4331   6.6858   7.1193   7.8423
     8.4925   9.0943

          k = 0.2500-0.2500 0.0000 ( 11857 PWs)   bands (ev):

   -43.2122  -2.4325  -2.1756  -2.1067  -2.0684  -1.9598  -1.9245  -1.8655
    -1.7790  -1.7330  -1.6610  -1.6608  -1.6202  -1.5149  -1.4634  -1.2418
    -1.2241  -1.1182  -0.8045  -0.7210  -0.7155  -0.6043  -0.5177  -0.4782
    -0.4368  -0.3733  -0.3015  -0.2482  -0.1778   0.0309   0.1465   0.5015
     0.7161   1.6468   2.8261   4.1322   5.3660   6.7941   8.1481   8.7322
     8.8845   9.5700

          k = 0.2500-0.1250 0.0000 ( 11878 PWs)   bands (ev):

   -43.2161  -2.8435  -2.5603  -2.3353  -2.3325  -2.2273  -2.0609  -1.9780
    -1.8400  -1.7075  -1.5310  -1.4673  -1.3672  -1.3293  -1.2305  -1.1603
    -1.1396  -1.0730  -1.0340  -0.9766  -0.8704  -0.7856  -0.7228  -0.5401
    -0.4125  -0.3777  -0.3375  -0.1982  -0.1480  -0.0089   0.1151   0.2566
     0.4552   0.7886   1.8624   3.2017   4.4717   5.8356   7.1216   8.0309
     8.6868   8.8978

          k = 0.3750-0.0000 0.0000 ( 11873 PWs)   bands (ev):

   -43.2138  -2.7991  -2.7869  -2.5348  -2.4818  -2.2457  -2.0431  -1.7708
    -1.6158  -1.5467  -1.3907  -1.3657  -1.3211  -1.2723  -1.2590  -1.1108
    -1.0842  -1.0504  -1.0166  -0.7506  -0.6983  -0.6853  -0.4955  -0.3891
    -0.1765  -0.1417   0.0569   0.1022   0.1877   0.3561   0.3868   0.6731
     0.8311   1.1905   2.4389   3.7603   4.9923   5.5191   6.2884   6.7349
     7.8911   8.1760

          k = 0.3750 0.1250 0.0000 ( 11868 PWs)   bands (ev):

   -43.2122  -2.6045  -2.5979  -2.3751  -2.3256  -2.0381  -1.9642  -1.9147
    -1.7649  -1.5708  -1.5393  -1.4766  -1.3596  -1.3378  -1.2653  -1.2012
    -1.0668  -1.0334  -0.9901  -0.8288  -0.7901  -0.6575  -0.5965  -0.4128
    -0.3280  -0.1364  -0.0291   0.1141   0.1857   0.2848   0.3160   0.8952
     1.1253   1.8535   2.9931   4.2337   5.4367   5.8591   6.5201   7.0170
     8.0399   8.3964

          k = 0.3750 0.2500 0.0000 ( 11826 PWs)   bands (ev):

   -43.2082  -2.4009  -2.3742  -2.3154  -2.2612  -2.1733  -2.1482  -2.0635
    -1.9501  -1.8694  -1.7038  -1.6694  -1.4997  -1.2249  -1.1687  -1.1174
    -1.0290  -0.9346  -0.6927  -0.6470  -0.5791  -0.5016  -0.4973  -0.3556
    -0.3068  -0.0918   0.0281   0.1978   0.2301   0.2590   0.4495   1.3356
     1.9957   2.9711   4.1480   5.3616   6.4331   6.6858   7.1193   7.8423
     8.4925   9.0943

          k = 0.3750 0.3750 0.0000 ( 11799 PWs)   bands (ev):

   -43.2043  -2.6538  -2.6078  -2.5698  -2.5365  -2.3419  -2.2848  -2.2653
    -2.2574  -2.0283  -1.8433  -1.8046  -1.7663  -1.3351  -1.2204  -0.7833
    -0.6415  -0.5313  -0.3108  -0.2627  -0.1976  -0.1370   0.0077   0.0140
     0.1189   0.1737   0.2156   0.2474   0.2490   0.3644   0.5277   2.5211
     3.3270   4.4155   5.6454   6.3997   6.8864   7.1557   8.1314   8.3571
     9.4421   9.7974

          k = 0.3750-0.5000 0.0000 ( 11750 PWs)   bands (ev):

   -43.2026  -2.7691  -2.7331  -2.6647  -2.6571  -2.4730  -2.3878  -2.3782
    -2.3390  -2.1821  -1.9390  -1.8957  -1.8061  -1.2661  -1.1539  -0.6268
    -0.5143  -0.4630  -0.2581  -0.1477  -0.0310   0.0236   0.1060   0.1267
     0.1722   0.3098   0.4021   0.4271   0.4692   0.4881   0.6361   4.4684
     4.5903   5.1895   5.3632   6.2821   6.5005   7.4687   7.9111   8.8151
     9.0086   9.8795

          k = 0.3750-0.3750 0.0000 ( 11799 PWs)   bands (ev):

   -43.2043  -2.6538  -2.6078  -2.5698  -2.5365  -2.3419  -2.2848  -2.2653
    -2.2574  -2.0283  -1.8433  -1.8046  -1.7663  -1.3351  -1.2204  -0.7833
    -0.6415  -0.5313  -0.3108  -0.2627  -0.1976  -0.1370   0.0077   0.0140
     0.1189   0.1737   0.2156   0.2474   0.2490   0.3644   0.5277   2.5211
     3.3270   4.4155   5.6454   6.3997   6.8864   7.1557   8.1314   8.3571
     9.4421   9.7974

          k = 0.3750-0.2500 0.0000 ( 11826 PWs)   bands (ev):

   -43.2082  -2.4009  -2.3742  -2.3154  -2.2612  -2.1733  -2.1482  -2.0635
    -1.9501  -1.8694  -1.7038  -1.6694  -1.4997  -1.2249  -1.1687  -1.1174
    -1.0290  -0.9346  -0.6927  -0.6470  -0.5791  -0.5016  -0.4973  -0.3556
    -0.3068  -0.0918   0.0281   0.1978   0.2301   0.2590   0.4495   1.3356
     1.9957   2.9711   4.1480   5.3616   6.4331   6.6858   7.1193   7.8423
     8.4925   9.0943

          k = 0.3750-0.1250 0.0000 ( 11868 PWs)   bands (ev):

   -43.2122  -2.6045  -2.5979  -2.3751  -2.3256  -2.0381  -1.9642  -1.9147
    -1.7649  -1.5708  -1.5393  -1.4766  -1.3596  -1.3378  -1.2653  -1.2012
    -1.0668  -1.0334  -0.9901  -0.8288  -0.7901  -0.6575  -0.5965  -0.4128
    -0.3280  -0.1364  -0.0291   0.1141   0.1857   0.2848   0.3160   0.8952
     1.1253   1.8535   2.9931   4.2337   5.4367   5.8591   6.5201   7.0170
     8.0399   8.3964

          k =-0.5000 0.0000 0.0000 ( 11796 PWs)   bands (ev):

   -43.2119  -2.8551  -2.8521  -2.5233  -2.5133  -2.0919  -2.0044  -1.6452
    -1.6273  -1.4902  -1.4534  -1.4412  -1.3527  -1.3468  -1.3297  -1.1292
    -1.0911  -1.0772  -0.9938  -0.8716  -0.6859  -0.4259  -0.3346  -0.3113
    -0.1771   0.0662   0.1400   0.1733   0.2795   0.3381   0.3608   2.7622
     2.7763   2.8529   2.8686   2.9496   3.2293   3.5238   6.1780   6.9900
     7.3430   7.8155

          k =-0.5000 0.1250 0.0000 ( 11862 PWs)   bands (ev):

   -43.2106  -2.6815  -2.6740  -2.4206  -2.3866  -2.0655  -1.9425  -1.7051
    -1.6835  -1.6374  -1.5512  -1.5060  -1.4954  -1.3608  -1.3539  -1.2055
    -1.1116  -1.0831  -1.0025  -0.7070  -0.6180  -0.5992  -0.5539  -0.2638
    -0.1391  -0.0860   0.0154   0.2010   0.2874   0.3500   0.4097   3.0133
     3.0446   3.2785   3.2809   3.6413   3.7168   4.1208   6.3922   7.1640
     7.4769   7.9866

          k =-0.5000 0.2500 0.0000 ( 11818 PWs)   bands (ev):

   -43.2066  -2.4499  -2.4430  -2.4359  -2.4295  -2.2754  -2.2389  -2.1489
    -2.0270  -1.9458  -1.7958  -1.7305  -1.5414  -1.1313  -0.9452  -0.9381
    -0.9111  -0.7881  -0.7541  -0.6932  -0.5533  -0.5502  -0.5155  -0.2605
    -0.1244   0.0966   0.1633   0.3355   0.4045   0.4161   0.4698   3.5845
     3.7075   4.0922   4.2494   4.8886   5.0620   5.6233   7.0115   7.6851
     7.9602   8.6203

          k =-0.5000 0.3750 0.0000 ( 11750 PWs)   bands (ev):

   -43.2026  -2.7691  -2.7331  -2.6647  -2.6571  -2.4730  -2.3878  -2.3782
    -2.3390  -2.1821  -1.9390  -1.8957  -1.8061  -1.2661  -1.1539  -0.6268
    -0.5143  -0.4630  -0.2581  -0.1477  -0.0310   0.0236   0.1060   0.1267
     0.1722   0.3098   0.4021   0.4271   0.4692   0.4881   0.6361   4.4684
     4.5903   5.1895   5.3632   6.2821   6.5005   7.4687   7.9111   8.8151
     9.0086   9.8795

          k =-0.5000-0.5000 0.0000 ( 11668 PWs)   bands (ev):

   -43.2008  -2.9116  -2.8723  -2.7549  -2.7549  -2.6388  -2.5324  -2.4152
    -2.4152  -2.3734  -2.0422  -1.8898  -1.8898  -1.1872  -1.1872  -0.4868
    -0.3898  -0.3898  -0.2138  -0.0489   0.0751   0.2733   0.3125   0.3347
     0.3347   0.4555   0.5854   0.6175   0.6282   0.6371   0.8628   5.1373
     5.1373   6.0249   6.0249   7.3674   7.3674   8.5536   8.9062   8.9062
    10.0035  10.0402

     the Fermi energy is     3.2980 ev

!    total energy              =    -520.63558411 Ry
     estimated scf accuracy    <          2.5E-09 Ry
     smearing contrib. (-TS)   =      -0.00070261 Ry
     internal energy E=F+TS    =    -520.63488150 Ry

     The total energy is F=E-TS. E is the sum of the following terms:
     one-electron contribution =   -6296.10559496 Ry
     hartree contribution      =    3198.04931073 Ry
     xc contribution           =    -137.61218576 Ry
     ewald contribution        =    2715.22118117 Ry
     DFT-D3 Dispersion         =      -0.18759269 Ry

     convergence has been achieved in   8 iterations

     negative rho (up, down):  1.042E-05 0.000E+00

     Forces acting on atoms (cartesian axes, Ry/au):

     atom    1 type  2   force =    -0.00000013    0.00000004   -0.00067245
     atom    2 type  2   force =    -0.00000004    0.00000022    0.00094877
     atom    3 type  2   force =    -0.00000003    0.00000002    0.00031249
     atom    4 type  2   force =     0.00000015   -0.00000014   -0.00001392
     atom    5 type  2   force =    -0.00000013    0.00000014    0.00034580
     atom    6 type  2   force =     0.00000005   -0.00000022   -0.00098022
     atom    7 type  1   force =     0.00000013   -0.00000006    0.00005954
     The non-local contrib.  to forces
     atom    1 type  2   force =    -0.00000004    0.00000006   -0.02659606
     atom    2 type  2   force =    -0.00000004    0.00000008   -0.09178484
     atom    3 type  2   force =    -0.00000012    0.00000002    0.00253718
     atom    4 type  2   force =     0.00000014   -0.00000022    0.00065477
     atom    5 type  2   force =     0.00000039   -0.00000004   -0.01823954
     atom    6 type  2   force =     0.00000004   -0.00000032    0.01036654
     atom    7 type  1   force =     0.00000005   -0.00000006    0.05632009
     The ionic contribution  to forces
     atom    1 type  2   force =    -0.00000577   -0.00000683  -94.85278025
     atom    2 type  2   force =    -0.00000114    0.00000612 -150.84806067
     atom    3 type  2   force =     0.00000093    0.00000524   21.71860314
     atom    4 type  2   force =     0.00000802   -0.00000577  -36.66054100
     atom    5 type  2   force =    -0.00000468    0.00000379  136.63888369
     atom    6 type  2   force =    -0.00000042   -0.00000130   79.97198010
     atom    7 type  1   force =     0.00000307   -0.00000124   44.03191499
     The local contribution  to forces
     atom    1 type  2   force =     0.00000573    0.00000678   94.87326272
     atom    2 type  2   force =     0.00000097   -0.00000600  150.93064332
     atom    3 type  2   force =    -0.00000078   -0.00000511  -21.72070360
     atom    4 type  2   force =    -0.00000793    0.00000562   36.65873330
     atom    5 type  2   force =     0.00000428   -0.00000354 -136.61885481
     atom    6 type  2   force =     0.00000029    0.00000126  -79.97868597
     atom    7 type  1   force =    -0.00000300    0.00000120  -44.08579814
     The core correction contribution to forces
     atom    1 type  2   force =     0.00000002    0.00000002    0.00027801
     atom    2 type  2   force =    -0.00000000   -0.00000002    0.00604960
     atom    3 type  2   force =     0.00000001   -0.00000001    0.00008169
     atom    4 type  2   force =    -0.00000003    0.00000002    0.00018503
     atom    5 type  2   force =     0.00000003   -0.00000002    0.00221513
     atom    6 type  2   force =    -0.00000000    0.00000000   -0.00060351
     atom    7 type  1   force =     0.00000000    0.00000000    0.00000000
     The Hubbard contrib.    to forces
     atom    1 type  2   force =     0.00000000    0.00000000    0.00000000
     atom    2 type  2   force =     0.00000000    0.00000000    0.00000000
     atom    3 type  2   force =     0.00000000    0.00000000    0.00000000
     atom    4 type  2   force =     0.00000000    0.00000000    0.00000000
     atom    5 type  2   force =     0.00000000    0.00000000    0.00000000
     atom    6 type  2   force =     0.00000000    0.00000000    0.00000000
     atom    7 type  1   force =     0.00000000    0.00000000    0.00000000
     The SCF correction term to forces
     atom    1 type  2   force =    -0.00000007   -0.00000002   -0.00009738
     atom    2 type  2   force =     0.00000018    0.00000004   -0.00007453
     atom    3 type  2   force =    -0.00000005   -0.00000012    0.00009831
     atom    4 type  2   force =    -0.00000002    0.00000019   -0.00002334
     atom    5 type  2   force =    -0.00000015   -0.00000006   -0.00004618
     atom    6 type  2   force =     0.00000015    0.00000012    0.00008340
     atom    7 type  1   force =     0.00000003    0.00000002   -0.00003703

     DFT-D3 dispersion contribution to forces:
     atom    1 type  2   force =     0.00000001    0.00000002    0.00525539
     atom    2 type  2   force =     0.00000000   -0.00000002    0.00417077
     atom    3 type  2   force =    -0.00000000   -0.00000001   -0.00030935
     atom    4 type  2   force =    -0.00000002    0.00000001    0.00097219
     atom    5 type  2   force =     0.00000001   -0.00000001   -0.00361761
     atom    6 type  2   force =     0.00000000    0.00000000   -0.00412590
     atom    7 type  1   force =    -0.00000000    0.00000000   -0.00234549

     Total force =     0.001592     Total SCF correction =     0.000189
     SCF correction compared to forces is large: reduce conv_thr to get better values


     Computing stress (Cartesian axis) and pressure


     negative rho (up, down):  1.042E-05 0.000E+00
          total   stress  (Ry/bohr**3)                   (kbar)     P=      -13.24
  -0.00010253   0.00000000  -0.00000000          -15.08        0.00       -0.00
   0.00000000  -0.00010253   0.00000000            0.00      -15.08        0.00
  -0.00000000   0.00000000  -0.00006494           -0.00        0.00       -9.55

     Energy error            =      7.3E-06 Ry
     Gradient error          =      9.8E-04 Ry/Bohr

     bfgs converged in  24 scf cycles and  23 bfgs steps
     (criteria: energy <  1.0E-04 Ry, force <  1.0E-03 Ry/Bohr)

     End of BFGS Geometry Optimization

     Final energy             =    -520.6355841125 Ry

     File ./Ag_mp-124_100_bridge_1/Ag_mp-124_100_bridge_1.bfgs deleted, as requested
Begin final coordinates

ATOMIC_POSITIONS (angstrom)
Ag            2.1766655720        0.7255585756       12.0870060455
Ag            0.7255571181        2.1766644949       10.0256722554
Ag            2.1766625064        0.7255549008       16.1726328525
Ag            0.7255528821        2.1766673095       14.1357893361
Ag            2.1766644369        0.7255527870       20.2957031870
Ag            0.7255544480        2.1766633023       18.2078555524
Li            0.7255519715        2.1766632351       22.0577655421
End final coordinates



     Writing all to output data dir ./Ag_mp-124_100_bridge_1/Ag_mp-124_100_bridge_1.save/

     init_run     :      5.41s CPU      8.26s WALL (       1 calls)
     electrons    :     87.41s CPU    106.89s WALL (      24 calls)
     update_pot   :      6.80s CPU      7.94s WALL (      23 calls)
     forces       :      6.80s CPU      9.09s WALL (      24 calls)
     force_dftd3  :      1.04s CPU      1.50s WALL (      24 calls)
     stress       :     20.55s CPU     21.32s WALL (      24 calls)
     stres_dftd3  :      0.27s CPU      0.41s WALL (      24 calls)

     Called by init_run:
     wfcinit      :      0.32s CPU      0.56s WALL (       1 calls)
     potinit      :      1.04s CPU      2.65s WALL (       1 calls)
     hinit0       :      3.83s CPU      4.68s WALL (       1 calls)

     Called by electrons:
     c_bands      :     68.91s CPU     73.73s WALL (     213 calls)
     sum_band     :     10.75s CPU     11.87s WALL (     213 calls)
     v_of_rho     :      3.89s CPU     14.48s WALL (     220 calls)
     newd         :      3.85s CPU      6.36s WALL (     220 calls)
     mix_rho      :      0.42s CPU      0.63s WALL (     213 calls)
     energy_dftd3 :      0.05s CPU      0.05s WALL (      24 calls)

     Called by c_bands:
     init_us_2    :      0.61s CPU      0.68s WALL (    4275 calls)
     init_us_2:cp :      0.61s CPU      0.67s WALL (    4275 calls)
     cegterg      :     63.65s CPU     66.34s WALL (    1917 calls)

     Called by *egterg:
     cdiaghg      :     14.94s CPU     15.09s WALL (    7003 calls)
     h_psi        :     38.42s CPU     40.62s WALL (    7372 calls)
     s_psi        :      2.03s CPU      2.08s WALL (    7372 calls)
     g_psi        :      0.18s CPU      0.18s WALL (    5446 calls)

     Called by h_psi:
     h_psi:calbec :      3.19s CPU      3.58s WALL (    7372 calls)
     vloc_psi     :     33.12s CPU     34.81s WALL (    7372 calls)
     add_vuspsi   :      1.96s CPU      2.07s WALL (    7372 calls)

     General routines
     calbec       :      5.40s CPU      6.00s WALL (   10369 calls)
     fft          :      9.19s CPU     24.91s WALL (    3452 calls)
     ffts         :      1.01s CPU      1.26s WALL (     433 calls)
     fftw         :     34.56s CPU     36.28s WALL (  483052 calls)
     interpolate  :      1.18s CPU      2.20s WALL (     220 calls)

     Parallel routines

     PWSCF        :   2m 8.54s CPU   2m36.91s WALL


   This run was terminated on:   5:25:31  24Jul2025            

=------------------------------------------------------------------------------=
   JOB DONE.
=------------------------------------------------------------------------------=
