
     Program PWSCF v.7.2 starts on 24Jul2025 at  5:25:22 

     This program is part of the open-source Quantum ESPRESSO suite
     for quantum simulation of materials; please cite
         "P. Giannozzi et al., J. Phys.:Condens. Matter 21 395502 (2009);
         "P. Giannozzi et al., J. Phys.:Condens. Matter 29 465901 (2017);
         "P. Giannozzi et al., J. Chem. Phys. 152 154105 (2020);
          URL http://www.quantum-espresso.org", 
     in publications or presentations arising from this work. More details at
     http://www.quantum-espresso.org/quote

     Parallel version (MPI & OpenMP), running on     128 processor cores
     Number of MPI processes:               128
     Threads/MPI process:                     1

     MPI processes distributed on     2 nodes
     240181 MiB available memory on the printing compute node when the environment starts

     Reading input from Ag_mp-124_110_bridge_2.in

     Current dimensions of program PWSCF are:
     Max number of different atomic species (ntypx) = 10
     Max number of k-points (npk) =  40000
     Max angular momentum in pseudopotentials (lmaxx) =  4
     Message from routine iosys:
     restart disabled: needed files not found

     K-points division:     npool     =       4
     R & G space division:  proc/nbgrp/npool/nimage =      32
     Subspace diagonalization in iterative solution of the eigenvalue problem:
     a serial algorithm will be used


     Parallelization info
     --------------------
     sticks:   dense  smooth     PW     G-vecs:    dense   smooth      PW
     Min          52      23      7                12906     3761     603
     Max          53      24      8                12949     3784     633
     Sum        1693     741    227               413923   120671   19731

     Using Slab Decomposition



     bravais-lattice index     =            0
     lattice parameter (alat)  =       5.4844  a.u.
     unit-cell volume          =    2190.9204 (a.u.)^3
     number of atoms/cell      =            7
     number of atomic types    =            2
     number of electrons       =        69.00
     number of Kohn-Sham states=           42
     kinetic-energy cutoff     =      55.0000  Ry
     charge density cutoff     =     500.0000  Ry
     scf convergence threshold =      1.0E-06
     mixing beta               =       0.3000
     number of iterations used =            8  plain     mixing
     energy convergence thresh.=      1.0E-04
     force convergence thresh. =      1.0E-03
     Exchange-correlation= PBE
                           (   1   4   3   4   0   0   0)
     nstep                     =          500


     celldm(1)=   5.484398  celldm(2)=   0.000000  celldm(3)=   0.000000
     celldm(4)=   0.000000  celldm(5)=   0.000000  celldm(6)=   0.000000

     crystal axes: (cart. coord. in units of alat)
               a(1) = (   1.000000   0.000000   0.000000 )  
               a(2) = (   0.000000   1.414214   0.000000 )  
               a(3) = (   0.000000   0.000000   9.391281 )  

     reciprocal axes: (cart. coord. in units 2 pi/alat)
               b(1) = (  1.000000 -0.000000  0.000000 )  
               b(2) = (  0.000000  0.707107  0.000000 )  
               b(3) = ( -0.000000 -0.000000  0.106482 )  


     PseudoPot. # 1 for Li read from file:
     /home/ecastro/trabajo_final/pseudos/Li.pbe-s-rrkjus_psl.1.0.0.UPF
     MD5 check sum: 9f98d2529904d60b716d33989e9bc179
     Pseudo is Ultrasoft, Zval =  3.0
     Generated using &quot;atomic&quot; code by A. Dal Corso  v.6.3MaX
     Using radial grid of 1017 points,  4 beta functions with: 
                l(1) =   0
                l(2) =   0
                l(3) =   1
                l(4) =   1
     Q(r) pseudized with 0 coefficients 


     PseudoPot. # 2 for Ag read from file:
     /home/ecastro/trabajo_final/pseudos/Ag.pbe-n-rrkjus_psl.1.0.0.UPF
     MD5 check sum: 81cdf87bacf708300839c66ee23ce017
     Pseudo is Ultrasoft + core correction, Zval = 11.0
     Generated using &quot;atomic&quot; code by A. Dal Corso  v.6.2.2
     Using radial grid of 1237 points,  6 beta functions with: 
                l(1) =   0
                l(2) =   0
                l(3) =   1
                l(4) =   1
                l(5) =   2
                l(6) =   2
     Q(r) pseudized with 0 coefficients 


     atomic species   valence    mass     pseudopotential
        Li             3.00     6.94100     Li( 1.00)
        Ag            11.00   107.86820     Ag( 1.00)

     No symmetry found



   Cartesian axes

     site n.     atom                  positions (alat units)
         1           Ag  tau(   1) = (   0.7499986   1.0606605   5.4610461  )
         2           Ag  tau(   2) = (   0.2499984   0.3535538   5.9308985  )
         3           Ag  tau(   3) = (   0.7500000   1.0606602   4.4456403  )
         4           Ag  tau(   4) = (   0.2500000   0.3535534   4.9456403  )
         5           Ag  tau(   5) = (   0.7500000   1.0606602   3.4456403  )
         6           Ag  tau(   6) = (   0.2500000   0.3535534   3.9456403  )
         7           Li  tau(   7) = (   0.7499984   0.3535538   6.6200266  )

     --------------------------------------------
     DFT-D3 Dispersion Correction (no 3-body):
     --------------------------------------------
       Reference C6 values for interpolation: 

         atom   Coordination number   C6
         Li         0.000          2326.89
         Li         0.987           170.64
         Ag         0.000           853.49
         Ag         0.968           537.23

       Values used:

         atom   Coordination number  R0_AB[au]  C6      C8
         Ag         8.066            3.147    537.23  47741.54
         Ag         7.342            3.147    537.23  47741.54
         Ag         8.648            3.147    537.23  47741.54
         Ag         8.653            3.147    537.23  47741.54
         Ag         5.094            3.147    537.23  47741.54
         Ag         7.952            3.147    537.23  47741.54
         Li         3.843            3.303    170.64  12899.87

         Molecular C6 ( Ry / a.u.^6 ) =     22982.53


     number of k points=    34  Methfessel-Paxton smearing, width (Ry)=  0.0300
                       cart. coord. in units 2pi/alat
        k(    1) = (   0.0000000   0.0000000   0.0000000), wk =   0.0312500
        k(    2) = (   0.0000000   0.0883883   0.0000000), wk =   0.0625000
        k(    3) = (   0.0000000   0.1767767   0.0000000), wk =   0.0625000
        k(    4) = (   0.0000000   0.2651650   0.0000000), wk =   0.0625000
        k(    5) = (   0.0000000  -0.3535534   0.0000000), wk =   0.0312500
        k(    6) = (   0.1250000  -0.0000000   0.0000000), wk =   0.0625000
        k(    7) = (   0.1250000   0.0883883   0.0000000), wk =   0.0625000
        k(    8) = (   0.1250000   0.1767767   0.0000000), wk =   0.0625000
        k(    9) = (   0.1250000   0.2651650   0.0000000), wk =   0.0625000
        k(   10) = (   0.1250000  -0.3535534   0.0000000), wk =   0.0625000
        k(   11) = (   0.1250000  -0.2651650   0.0000000), wk =   0.0625000
        k(   12) = (   0.1250000  -0.1767767   0.0000000), wk =   0.0625000
        k(   13) = (   0.1250000  -0.0883883   0.0000000), wk =   0.0625000
        k(   14) = (   0.2500000  -0.0000000   0.0000000), wk =   0.0625000
        k(   15) = (   0.2500000   0.0883883   0.0000000), wk =   0.0625000
        k(   16) = (   0.2500000   0.1767767   0.0000000), wk =   0.0625000
        k(   17) = (   0.2500000   0.2651650   0.0000000), wk =   0.0625000
        k(   18) = (   0.2500000  -0.3535534   0.0000000), wk =   0.0625000
        k(   19) = (   0.2500000  -0.2651650   0.0000000), wk =   0.0625000
        k(   20) = (   0.2500000  -0.1767767   0.0000000), wk =   0.0625000
        k(   21) = (   0.2500000  -0.0883883   0.0000000), wk =   0.0625000
        k(   22) = (   0.3750000  -0.0000000   0.0000000), wk =   0.0625000
        k(   23) = (   0.3750000   0.0883883   0.0000000), wk =   0.0625000
        k(   24) = (   0.3750000   0.1767767   0.0000000), wk =   0.0625000
        k(   25) = (   0.3750000   0.2651650   0.0000000), wk =   0.0625000
        k(   26) = (   0.3750000  -0.3535534   0.0000000), wk =   0.0625000
        k(   27) = (   0.3750000  -0.2651650   0.0000000), wk =   0.0625000
        k(   28) = (   0.3750000  -0.1767767   0.0000000), wk =   0.0625000
        k(   29) = (   0.3750000  -0.0883883   0.0000000), wk =   0.0625000
        k(   30) = (  -0.5000000   0.0000000   0.0000000), wk =   0.0312500
        k(   31) = (  -0.5000000   0.0883883   0.0000000), wk =   0.0625000
        k(   32) = (  -0.5000000   0.1767767   0.0000000), wk =   0.0625000
        k(   33) = (  -0.5000000   0.2651650   0.0000000), wk =   0.0625000
        k(   34) = (  -0.5000000  -0.3535534   0.0000000), wk =   0.0312500

     Dense  grid:   413923 G-vectors     FFT dimensions: (  40,  60, 375)

     Smooth grid:   120671 G-vectors     FFT dimensions: (  25,  40, 243)

     Estimated max dynamical RAM per process >      25.22 MB

     Estimated total dynamical RAM >       2.86 GB
     Cannot read rho : file not found

     Initial potential from superposition of free atoms

     starting charge      68.9930, renormalised to      69.0000

     negative rho (up, down):  4.571E-05 0.000E+00
     Message from routine qexsd_readschema :
     xml data file ./Ag_mp-124_110_bridge_2/Ag_mp-124_110_bridge_2.save/data-file-sch
     Cannot read wfcs: file not found
     Starting wfcs are   59 randomized atomic wfcs

     total cpu time spent up to now is        6.8 secs

     per-process dynamical memory:   177.3 Mb

     Self-consistent Calculation

     iteration #  1     ecut=    55.00 Ry     beta= 0.30
     Davidson diagonalization with overlap
     c_bands:  2 eigenvalues not converged
     c_bands:  1 eigenvalues not converged
     c_bands:  1 eigenvalues not converged
     c_bands:  1 eigenvalues not converged
     c_bands:  1 eigenvalues not converged
     ethr =  1.00E-05,  avg # of iterations = 18.5

     negative rho (up, down):  3.741E-05 0.000E+00

     total cpu time spent up to now is       13.3 secs

     total energy              =    -520.48555553 Ry
     estimated scf accuracy    <       0.24931486 Ry

     iteration #  2     ecut=    55.00 Ry     beta= 0.30
     Davidson diagonalization with overlap
     ethr =  3.61E-04,  avg # of iterations =  7.6

     negative rho (up, down):  6.321E-05 0.000E+00

     total cpu time spent up to now is       14.8 secs

     total energy              =    -520.44764188 Ry
     estimated scf accuracy    <       0.99775949 Ry

     iteration #  3     ecut=    55.00 Ry     beta= 0.30
     Davidson diagonalization with overlap
     ethr =  3.61E-04,  avg # of iterations =  3.9

     negative rho (up, down):  2.854E-05 0.000E+00

     total cpu time spent up to now is       15.9 secs

     total energy              =    -520.53988793 Ry
     estimated scf accuracy    <       0.07158194 Ry

     iteration #  4     ecut=    55.00 Ry     beta= 0.30
     Davidson diagonalization with overlap
     ethr =  1.04E-04,  avg # of iterations =  2.1

     negative rho (up, down):  5.798E-05 0.000E+00

     total cpu time spent up to now is       16.7 secs

     total energy              =    -520.53817702 Ry
     estimated scf accuracy    <       0.16541679 Ry

     iteration #  5     ecut=    55.00 Ry     beta= 0.30
     Davidson diagonalization with overlap
     ethr =  1.04E-04,  avg # of iterations =  2.2

     negative rho (up, down):  3.141E-05 0.000E+00

     total cpu time spent up to now is       17.4 secs

     total energy              =    -520.54571586 Ry
     estimated scf accuracy    <       0.01360050 Ry

     iteration #  6     ecut=    55.00 Ry     beta= 0.30
     Davidson diagonalization with overlap
     ethr =  1.97E-05,  avg # of iterations =  7.5

     negative rho (up, down):  1.687E-05 0.000E+00

     total cpu time spent up to now is       18.2 secs

     total energy              =    -520.54626442 Ry
     estimated scf accuracy    <       0.00050098 Ry

     iteration #  7     ecut=    55.00 Ry     beta= 0.30
     Davidson diagonalization with overlap
     ethr =  7.26E-07,  avg # of iterations =  8.2

     negative rho (up, down):  1.615E-05 0.000E+00

     total cpu time spent up to now is       19.1 secs

     total energy              =    -520.54635744 Ry
     estimated scf accuracy    <       0.00017687 Ry

     iteration #  8     ecut=    55.00 Ry     beta= 0.30
     Davidson diagonalization with overlap
     ethr =  2.56E-07,  avg # of iterations =  1.9

     negative rho (up, down):  2.159E-05 0.000E+00

     total cpu time spent up to now is       19.8 secs

     total energy              =    -520.54637743 Ry
     estimated scf accuracy    <       0.00002071 Ry

     iteration #  9     ecut=    55.00 Ry     beta= 0.30
     Davidson diagonalization with overlap
     ethr =  3.00E-08,  avg # of iterations =  4.0

     negative rho (up, down):  1.759E-05 0.000E+00

     total cpu time spent up to now is       20.5 secs

     total energy              =    -520.54638034 Ry
     estimated scf accuracy    <       0.00000615 Ry

     iteration # 10     ecut=    55.00 Ry     beta= 0.30
     Davidson diagonalization with overlap
     ethr =  8.91E-09,  avg # of iterations =  2.4

     negative rho (up, down):  1.564E-05 0.000E+00

     total cpu time spent up to now is       21.0 secs

     total energy              =    -520.54638127 Ry
     estimated scf accuracy    <       0.00000332 Ry

     iteration # 11     ecut=    55.00 Ry     beta= 0.30
     Davidson diagonalization with overlap
     ethr =  4.81E-09,  avg # of iterations =  2.0

     negative rho (up, down):  1.289E-05 0.000E+00

     total cpu time spent up to now is       21.4 secs

     End of self-consistent calculation

          k = 0.0000 0.0000 0.0000 ( 15163 PWs)   bands (ev):

   -45.2839  -5.2662  -4.2895  -4.1355  -3.9271  -3.8360  -3.4641  -3.3625
    -3.1431  -3.0217  -2.9540  -2.7783  -2.6922  -2.6124  -2.5573  -2.5362
    -2.4393  -2.3358  -2.2383  -2.1760  -1.9607  -1.8740  -1.8695  -1.8447
    -1.7699  -1.7123  -1.5464  -1.3959  -1.3582  -1.0716  -1.0676  -0.9835
    -0.7761  -0.7374   0.7263   1.9104   3.4574   4.2856   4.8814   5.6172
     5.7372   5.8601

          k = 0.0000 0.0884 0.0000 ( 15115 PWs)   bands (ev):

   -45.2838  -5.1199  -4.2388  -4.0957  -3.8812  -3.8294  -3.6192  -3.4213
    -3.1888  -2.9463  -2.8027  -2.7648  -2.7034  -2.5849  -2.5405  -2.4433
    -2.4308  -2.3016  -2.1758  -2.1296  -2.1231  -1.8841  -1.8657  -1.7718
    -1.7345  -1.6112  -1.5562  -1.4971  -1.2021  -1.1497  -1.1399  -0.9289
    -0.8278  -0.7123   0.8087   2.0179   3.2945   3.5477   4.7363   5.0207
     5.6971   5.8663

          k = 0.0000 0.1768 0.0000 ( 15114 PWs)   bands (ev):

   -45.2838  -4.7126  -4.1613  -3.9844  -3.8745  -3.8262  -3.7387  -3.4548
    -3.0888  -2.9377  -2.8394  -2.6482  -2.5782  -2.5530  -2.4912  -2.4907
    -2.3706  -2.3083  -2.1620  -2.1506  -1.9616  -1.9052  -1.7644  -1.6754
    -1.6419  -1.5318  -1.5158  -1.3845  -1.3201  -1.1897  -1.0745  -0.9396
    -0.8838  -0.5620   1.0729   1.5430   2.4033   2.9799   3.7115   4.4235
     5.3060   5.6941

          k = 0.0000 0.2652 0.0000 ( 15152 PWs)   bands (ev):

   -45.2838  -4.2010  -4.1634  -4.0225  -3.8499  -3.8145  -3.5216  -3.4143
    -3.0700  -2.8990  -2.7798  -2.6526  -2.6349  -2.5773  -2.5330  -2.4083
    -2.3747  -2.2359  -2.2242  -2.0615  -1.9749  -1.9180  -1.7150  -1.6139
    -1.4362  -1.4173  -1.3333  -1.2992  -1.2015  -1.1184  -1.0598  -0.9464
    -0.8981  -0.0183   0.0137   1.2191   1.7039   2.6361   3.0232   3.7133
     4.4339   6.0280

          k = 0.0000-0.3536 0.0000 ( 15118 PWs)   bands (ev):

   -45.2837  -4.1850  -4.1111  -3.8671  -3.8469  -3.7695  -3.4014  -3.3461
    -3.1436  -2.7912  -2.7461  -2.6904  -2.6803  -2.6230  -2.5734  -2.3386
    -2.3262  -2.2591  -2.1853  -2.0798  -2.0559  -1.9442  -1.7656  -1.4801
    -1.3499  -1.2583  -1.2263  -1.1782  -1.1155  -1.0967  -1.0494  -0.9457
    -0.9072  -0.2285  -0.2179   1.1409   1.3776   2.1109   3.1652   3.6946
     3.7491   6.4789

          k = 0.1250-0.0000 0.0000 ( 15077 PWs)   bands (ev):

   -45.2821  -4.9603  -4.0826  -3.9147  -3.8053  -3.6425  -3.3351  -3.2425
    -3.1817  -3.1541  -3.0390  -2.8795  -2.7981  -2.6891  -2.6809  -2.5002
    -2.4556  -2.3592  -2.3251  -2.2449  -1.9778  -1.8647  -1.7425  -1.7297
    -1.6762  -1.5887  -1.4783  -1.4362  -1.3001  -1.2211  -1.1976  -0.9452
    -0.8092  -0.6033   0.9509   2.1893   3.7664   4.9669   5.1584   5.9054
     6.0164   6.3104

          k = 0.1250 0.0884 0.0000 ( 15111 PWs)   bands (ev):

   -45.2822  -4.8227  -4.0243  -3.8727  -3.7703  -3.6191  -3.4896  -3.3152
    -3.1607  -3.0686  -2.9655  -2.8370  -2.7399  -2.6580  -2.5880  -2.4428
    -2.4315  -2.4032  -2.3082  -2.2381  -2.0710  -1.9752  -1.7999  -1.7375
    -1.6554  -1.5856  -1.4812  -1.4444  -1.2248  -1.1842  -1.1349  -0.9832
    -0.8850  -0.5073   1.0653   2.3114   3.8543   3.9205   5.1281   5.3138
     6.0139   6.1507

          k = 0.1250 0.1768 0.0000 ( 15135 PWs)   bands (ev):

   -45.2822  -4.4422  -3.9445  -3.7430  -3.6984  -3.6716  -3.5760  -3.2942
    -3.1003  -3.0021  -2.9115  -2.7546  -2.6808  -2.5701  -2.5001  -2.4382
    -2.3453  -2.3306  -2.2991  -2.2127  -2.1376  -1.9957  -1.9039  -1.8863
    -1.6784  -1.6199  -1.4671  -1.3567  -1.1848  -1.1365  -1.1131  -0.9991
    -0.9900  -0.1283   1.4121   2.1044   2.7511   3.3668   4.1190   4.7414
     5.6137   5.9671

          k = 0.1250 0.2652 0.0000 ( 15153 PWs)   bands (ev):

   -45.2822  -3.9771  -3.9496  -3.8146  -3.5666  -3.5536  -3.4719  -3.2730
    -3.0631  -2.9007  -2.8393  -2.7450  -2.6178  -2.5679  -2.5395  -2.4608
    -2.3990  -2.3511  -2.2941  -2.0778  -2.0683  -2.0438  -1.9166  -1.7488
    -1.6724  -1.5652  -1.4937  -1.4267  -1.2430  -1.1969  -1.0888  -1.0436
    -0.5906   0.5526   0.5808   1.7078   2.0949   3.0917   3.3431   4.1273
     4.7295   6.2887

          k = 0.1250-0.3536 0.0000 ( 15168 PWs)   bands (ev):

   -45.2823  -3.9809  -3.8990  -3.6063  -3.5990  -3.4772  -3.3741  -3.2500
    -3.0508  -2.8588  -2.7825  -2.6980  -2.6678  -2.5854  -2.5839  -2.5627
    -2.4184  -2.3742  -2.2409  -2.1397  -2.0583  -1.9856  -1.9116  -1.6646
    -1.5660  -1.5324  -1.4687  -1.3867  -1.3441  -1.2171  -1.1404  -0.6458
    -0.5959   0.3108   0.3594   1.7362   1.7598   2.6615   3.4491   4.0671
     4.1077   6.7304

          k = 0.1250-0.2652 0.0000 ( 15153 PWs)   bands (ev):

   -45.2822  -3.9771  -3.9496  -3.8146  -3.5666  -3.5536  -3.4719  -3.2730
    -3.0631  -2.9007  -2.8393  -2.7450  -2.6178  -2.5679  -2.5395  -2.4608
    -2.3990  -2.3511  -2.2941  -2.0778  -2.0683  -2.0438  -1.9166  -1.7488
    -1.6724  -1.5652  -1.4937  -1.4267  -1.2430  -1.1969  -1.0888  -1.0436
    -0.5906   0.5526   0.5808   1.7078   2.0949   3.0917   3.3431   4.1273
     4.7295   6.2887

          k = 0.1250-0.1768 0.0000 ( 15135 PWs)   bands (ev):

   -45.2822  -4.4422  -3.9445  -3.7430  -3.6984  -3.6716  -3.5760  -3.2942
    -3.1003  -3.0021  -2.9115  -2.7546  -2.6808  -2.5701  -2.5001  -2.4382
    -2.3453  -2.3306  -2.2991  -2.2127  -2.1376  -1.9957  -1.9039  -1.8863
    -1.6784  -1.6199  -1.4671  -1.3567  -1.1848  -1.1365  -1.1131  -0.9991
    -0.9900  -0.1283   1.4121   2.1044   2.7511   3.3668   4.1190   4.7414
     5.6137   5.9671

          k = 0.1250-0.0884 0.0000 ( 15111 PWs)   bands (ev):

   -45.2822  -4.8227  -4.0243  -3.8727  -3.7703  -3.6191  -3.4896  -3.3152
    -3.1607  -3.0686  -2.9655  -2.8370  -2.7399  -2.6580  -2.5880  -2.4428
    -2.4315  -2.4032  -2.3082  -2.2381  -2.0710  -1.9752  -1.7999  -1.7375
    -1.6554  -1.5856  -1.4812  -1.4444  -1.2248  -1.1842  -1.1349  -0.9832
    -0.8850  -0.5073   1.0653   2.3114   3.8543   3.9205   5.1281   5.3138
     6.0138   6.1506

          k = 0.2500-0.0000 0.0000 ( 15101 PWs)   bands (ev):

   -45.2783  -4.2236  -3.8711  -3.6760  -3.6584  -3.6289  -3.5374  -3.4010
    -3.2358  -3.1474  -3.0811  -2.9457  -2.8333  -2.6611  -2.6018  -2.4515
    -2.3739  -2.1540  -1.9894  -1.9877  -1.8372  -1.7803  -1.7116  -1.6876
    -1.5785  -1.4743  -1.3862  -1.3639  -1.2804  -1.2053  -1.1566  -0.8466
    -0.8036  -0.0749   1.5952   2.9825   4.5733   5.9482   6.6078   6.6726
     6.8158   7.5022

          k = 0.2500 0.0884 0.0000 ( 15103 PWs)   bands (ev):

   -45.2783  -4.1511  -3.8197  -3.6625  -3.6433  -3.5386  -3.4414  -3.3832
    -3.2161  -3.0873  -3.0745  -2.9114  -2.8017  -2.6581  -2.5323  -2.4744
    -2.3780  -2.2404  -2.1655  -1.9941  -1.9091  -1.8094  -1.7447  -1.6824
    -1.6111  -1.5334  -1.4421  -1.3515  -1.2750  -1.1096  -1.0699  -0.9045
    -0.8609   0.1721   1.7635   3.1341   4.6914   5.2890   6.0548   6.2272
     6.8255   6.9579

          k = 0.2500 0.1768 0.0000 ( 15121 PWs)   bands (ev):

   -45.2784  -3.9774  -3.7200  -3.6045  -3.5447  -3.3438  -3.3044  -3.2253
    -3.1142  -3.0446  -2.9763  -2.8690  -2.7480  -2.6581  -2.5790  -2.4397
    -2.4231  -2.3382  -2.2287  -2.1125  -1.9321  -1.9015  -1.8360  -1.8207
    -1.7057  -1.6662  -1.4869  -1.4319  -1.2550  -1.1283  -1.0052  -0.9971
    -0.5480   0.7667   2.2200   3.2555   3.7034   4.2966   5.1876   5.5535
     6.5025   6.7558

          k = 0.2500 0.2652 0.0000 ( 15099 PWs)   bands (ev):

   -45.2783  -3.7964  -3.6062  -3.5318  -3.4832  -3.1694  -3.1239  -3.0599
    -3.0307  -2.9354  -2.9095  -2.8748  -2.7186  -2.6212  -2.5773  -2.5016
    -2.4709  -2.3272  -2.2570  -2.1743  -2.0185  -1.9799  -1.9581  -1.8737
    -1.8409  -1.6736  -1.6200  -1.5276  -1.2340  -1.1733  -1.1117  -0.8017
     0.2168   1.4853   1.6605   2.7447   2.9595   3.9843   4.4189   5.1862
     5.6739   7.0464

          k = 0.2500-0.3536 0.0000 ( 15096 PWs)   bands (ev):

   -45.2783  -3.6993  -3.5613  -3.5304  -3.4097  -3.1757  -3.1075  -2.9995
    -2.9844  -2.9156  -2.9149  -2.7889  -2.6341  -2.5552  -2.5334  -2.5152
    -2.4313  -2.3957  -2.2310  -2.2016  -2.1352  -2.0689  -1.9931  -1.9260
    -1.9074  -1.6852  -1.6803  -1.3952  -1.3857  -1.2817  -1.1596   0.1163
     0.2368   1.1711   1.3674   2.5561   2.8781   3.8422   4.2083   5.0696
     5.3111   7.5444

          k = 0.2500-0.2652 0.0000 ( 15099 PWs)   bands (ev):

   -45.2783  -3.7964  -3.6062  -3.5318  -3.4832  -3.1694  -3.1239  -3.0599
    -3.0307  -2.9354  -2.9095  -2.8748  -2.7186  -2.6212  -2.5773  -2.5016
    -2.4709  -2.3272  -2.2570  -2.1743  -2.0185  -1.9799  -1.9581  -1.8737
    -1.8409  -1.6736  -1.6200  -1.5276  -1.2340  -1.1733  -1.1117  -0.8017
     0.2168   1.4853   1.6605   2.7447   2.9595   3.9843   4.4189   5.1862
     5.6739   7.0464

          k = 0.2500-0.1768 0.0000 ( 15121 PWs)   bands (ev):

   -45.2784  -3.9774  -3.7200  -3.6045  -3.5447  -3.3438  -3.3044  -3.2253
    -3.1142  -3.0446  -2.9763  -2.8690  -2.7480  -2.6581  -2.5790  -2.4397
    -2.4231  -2.3382  -2.2287  -2.1125  -1.9321  -1.9015  -1.8360  -1.8207
    -1.7057  -1.6662  -1.4869  -1.4319  -1.2550  -1.1283  -1.0052  -0.9971
    -0.5480   0.7667   2.2200   3.2555   3.7034   4.2966   5.1876   5.5535
     6.5027   6.7559

          k = 0.2500-0.0884 0.0000 ( 15103 PWs)   bands (ev):

   -45.2783  -4.1511  -3.8197  -3.6625  -3.6433  -3.5386  -3.4414  -3.3832
    -3.2161  -3.0873  -3.0745  -2.9114  -2.8017  -2.6581  -2.5323  -2.4744
    -2.3780  -2.2404  -2.1655  -1.9941  -1.9091  -1.8094  -1.7447  -1.6824
    -1.6111  -1.5334  -1.4421  -1.3515  -1.2750  -1.1096  -1.0699  -0.9045
    -0.8609   0.1721   1.7635   3.1341   4.6914   5.2890   6.0548   6.2272
     6.8255   6.9579

          k = 0.3750-0.0000 0.0000 ( 15069 PWs)   bands (ev):

   -45.2745  -4.1038  -3.9533  -3.9359  -3.8609  -3.7149  -3.4981  -3.4969
    -3.4171  -3.1889  -2.9682  -2.9540  -2.7393  -2.6941  -2.6800  -2.3305
    -2.1601  -1.8752  -1.8643  -1.8098  -1.5950  -1.5788  -1.3907  -1.2942
    -1.2431  -1.1999  -1.1366  -1.0829  -1.0687  -0.8706  -0.7890  -0.4371
    -0.1034   1.1695   2.5685   4.0463   4.4224   5.0120   5.4782   6.6453
     7.4551   8.1361

          k = 0.3750 0.0884 0.0000 ( 15052 PWs)   bands (ev):

   -45.2744  -4.0392  -3.9120  -3.8732  -3.8168  -3.7236  -3.5221  -3.4338
    -3.3865  -3.2359  -3.0460  -2.8357  -2.7225  -2.6360  -2.5628  -2.2717
    -2.1530  -2.0114  -1.8972  -1.8222  -1.7501  -1.5346  -1.4578  -1.4428
    -1.3032  -1.2023  -1.1450  -1.0745  -1.0601  -0.9334  -0.8778  -0.4420
     0.1098   1.4403   2.7728   4.2385   4.5264   5.1933   5.5660   6.7965
     7.1471   7.4713

          k = 0.3750 0.1768 0.0000 ( 15049 PWs)   bands (ev):

   -45.2744  -3.9030  -3.8709  -3.7512  -3.7171  -3.6049  -3.5373  -3.3309
    -3.3075  -3.1434  -2.9854  -2.8143  -2.6720  -2.5485  -2.4404  -2.3669
    -2.2384  -2.0920  -2.0079  -1.9259  -1.8958  -1.6997  -1.6051  -1.4894
    -1.3304  -1.2837  -1.1920  -1.1538  -1.0638  -0.9991  -0.9678  -0.3692
     0.6841   2.0406   3.3015   4.1551   4.8756   5.3033   5.6248   6.0225
     6.5679   7.0065

          k = 0.3750 0.2652 0.0000 ( 15057 PWs)   bands (ev):

   -45.2744  -3.9567  -3.7965  -3.6522  -3.4834  -3.4719  -3.3107  -3.2283
    -3.1108  -2.9890  -2.9190  -2.8038  -2.7513  -2.6078  -2.5150  -2.4382
    -2.4096  -2.3405  -2.1946  -2.0279  -1.8935  -1.6878  -1.6100  -1.5654
    -1.4608  -1.3249  -1.2852  -1.1526  -1.1048  -1.0599  -1.0143   0.1909
     1.4732   2.6658   2.8445   3.9392   4.1989   5.2443   5.6146   6.2546
     6.7394   6.9484

          k = 0.3750-0.3536 0.0000 ( 15056 PWs)   bands (ev):

   -45.2743  -3.9550  -3.8789  -3.4582  -3.3845  -3.2987  -3.2404  -3.1178
    -3.0916  -2.8985  -2.8929  -2.8623  -2.8032  -2.7036  -2.6525  -2.5897
    -2.4323  -2.3023  -2.2431  -2.0680  -1.8830  -1.7629  -1.6151  -1.6119
    -1.4009  -1.3298  -1.2632  -1.2460  -1.1612  -1.1195  -1.0259   1.1909
     1.3865   2.3419   2.7554   3.5393   4.3598   5.0840   5.4248   6.6723
     7.0014   7.1967

          k = 0.3750-0.2652 0.0000 ( 15057 PWs)   bands (ev):

   -45.2744  -3.9567  -3.7965  -3.6522  -3.4834  -3.4719  -3.3107  -3.2283
    -3.1108  -2.9890  -2.9190  -2.8038  -2.7513  -2.6078  -2.5150  -2.4382
    -2.4096  -2.3405  -2.1946  -2.0279  -1.8935  -1.6878  -1.6100  -1.5654
    -1.4608  -1.3249  -1.2852  -1.1526  -1.1048  -1.0599  -1.0143   0.1909
     1.4732   2.6658   2.8445   3.9392   4.1989   5.2443   5.6146   6.2546
     6.7394   6.9484

          k = 0.3750-0.1768 0.0000 ( 15049 PWs)   bands (ev):

   -45.2744  -3.9030  -3.8709  -3.7512  -3.7171  -3.6049  -3.5373  -3.3309
    -3.3075  -3.1434  -2.9854  -2.8143  -2.6720  -2.5485  -2.4404  -2.3669
    -2.2384  -2.0920  -2.0079  -1.9259  -1.8958  -1.6997  -1.6051  -1.4894
    -1.3304  -1.2837  -1.1920  -1.1538  -1.0638  -0.9991  -0.9678  -0.3692
     0.6841   2.0406   3.3015   4.1551   4.8756   5.3033   5.6248   6.0225
     6.5679   7.0065

          k = 0.3750-0.0884 0.0000 ( 15052 PWs)   bands (ev):

   -45.2744  -4.0393  -3.9120  -3.8732  -3.8168  -3.7236  -3.5221  -3.4338
    -3.3865  -3.2359  -3.0460  -2.8357  -2.7225  -2.6360  -2.5628  -2.2717
    -2.1530  -2.0114  -1.8972  -1.8222  -1.7501  -1.5346  -1.4578  -1.4428
    -1.3032  -1.2023  -1.1450  -1.0745  -1.0601  -0.9334  -0.8778  -0.4420
     0.1098   1.4403   2.7728   4.2385   4.5264   5.1933   5.5660   6.7965
     7.1471   7.4712

          k =-0.5000 0.0000 0.0000 ( 14992 PWs)   bands (ev):

   -45.2728  -4.2169  -4.0702  -4.0505  -3.9829  -3.6667  -3.5865  -3.5576
    -3.5011  -3.1055  -3.0819  -2.8181  -2.7850  -2.7435  -2.7002  -2.1781
    -2.0775  -1.8669  -1.7994  -1.7549  -1.5124  -1.3258  -1.3000  -1.2128
    -1.1955  -1.1197  -1.0672  -0.9885  -0.8580  -0.8320  -0.8135   1.6342
     1.6456   2.2070   2.2679   2.8573   3.2145   3.6241   5.8647   6.2162
     7.1468   8.9443

          k =-0.5000 0.0884 0.0000 ( 14998 PWs)   bands (ev):

   -45.2727  -4.1467  -4.0185  -3.9786  -3.9287  -3.6905  -3.6733  -3.5189
    -3.3971  -3.2760  -3.0914  -2.8522  -2.6987  -2.6314  -2.5959  -2.1486
    -2.0010  -1.9186  -1.8296  -1.7778  -1.6633  -1.4336  -1.3270  -1.2460
    -1.2201  -1.1738  -1.0804  -0.9906  -0.9409  -0.9071  -0.7952   1.6994
     1.7041   2.3604   2.4448   3.0094   3.5305   3.9285   5.9485   6.3572
     7.2701   8.8742

          k =-0.5000 0.1768 0.0000 ( 15026 PWs)   bands (ev):

   -45.2728  -3.9613  -3.9160  -3.8487  -3.8230  -3.7310  -3.7244  -3.4262
    -3.3277  -3.2053  -3.0665  -2.8447  -2.6853  -2.5215  -2.4626  -2.2736
    -2.0630  -1.9972  -1.8840  -1.8686  -1.8093  -1.5497  -1.4808  -1.4059
    -1.3395  -1.2798  -1.1171  -1.0416  -0.8798  -0.8750  -0.8053   1.8575
     1.9056   2.7301   2.9152   3.4224   4.2997   4.7029   6.1620   6.7487
     7.4580   7.5993

          k =-0.5000 0.2652 0.0000 ( 15032 PWs)   bands (ev):

   -45.2727  -4.0184  -3.9471  -3.7272  -3.6386  -3.5018  -3.4749  -3.3747
    -3.1566  -3.0179  -2.9968  -2.8191  -2.7929  -2.5548  -2.4988  -2.4420
    -2.3616  -2.2131  -2.0757  -2.0679  -1.8751  -1.6128  -1.4747  -1.4722
    -1.3680  -1.2146  -1.0135  -1.0045  -0.8832  -0.8789  -0.8176   2.0867
     2.2045   3.1675   3.5314   3.9160   5.2526   5.6266   6.1701   6.2393
     6.3440   6.8221

          k =-0.5000-0.3536 0.0000 ( 15032 PWs)   bands (ev):

   -45.2727  -4.0655  -4.0030  -3.5577  -3.4921  -3.4668  -3.3497  -3.1828
    -3.0772  -3.0220  -2.8774  -2.8439  -2.7563  -2.7170  -2.7016  -2.6787
    -2.4619  -2.2028  -2.1633  -2.0412  -1.9087  -1.7468  -1.5648  -1.3268
    -1.2922  -1.2913  -0.9529  -0.9437  -0.8947  -0.8942  -0.8112   2.2211
     2.3925   3.3938   3.9123   4.1464   5.6621   5.6749   6.0176   6.1699
     6.2795   6.3037

     the Fermi energy is     1.9732 ev

!    total energy              =    -520.54638159 Ry
     estimated scf accuracy    <       0.00000020 Ry
     smearing contrib. (-TS)   =       0.00006893 Ry
     internal energy E=F+TS    =    -520.54645052 Ry

     The total energy is F=E-TS. E is the sum of the following terms:
     one-electron contribution =   -5290.96872539 Ry
     hartree contribution      =    2692.04876679 Ry
     xc contribution           =    -137.52021688 Ry
     ewald contribution        =    2216.06065234 Ry
     DFT-D3 Dispersion         =      -0.16692738 Ry

     convergence has been achieved in  11 iterations

     negative rho (up, down):  1.289E-05 0.000E+00

     Forces acting on atoms (cartesian axes, Ry/au):

     atom    1 type  2   force =    -0.00000032   -0.00000153   -0.00292216
     atom    2 type  2   force =     0.00000086   -0.00000010   -0.01378446
     atom    3 type  2   force =     0.00000208    0.00000029    0.00547260
     atom    4 type  2   force =    -0.00000076    0.00000088   -0.00383922
     atom    5 type  2   force =    -0.00000152   -0.00000093    0.00709091
     atom    6 type  2   force =    -0.00000088    0.00000162   -0.00725012
     atom    7 type  1   force =     0.00000054   -0.00000022    0.01523244
     The non-local contrib.  to forces
     atom    1 type  2   force =    -0.00000007   -0.00000129    0.01806989
     atom    2 type  2   force =    -0.00000040    0.00000056    0.03882374
     atom    3 type  2   force =     0.00000187    0.00000041   -0.01902949
     atom    4 type  2   force =    -0.00000009    0.00000208    0.01230259
     atom    5 type  2   force =    -0.00000187   -0.00000058   -0.13075755
     atom    6 type  2   force =    -0.00000119    0.00000108   -0.00718619
     atom    7 type  1   force =     0.00000002   -0.00000030    0.07131804
     The ionic contribution  to forces
     atom    1 type  2   force =     0.00000496   -0.00000511   67.32031476
     atom    2 type  2   force =    -0.00000080   -0.00000012  106.03513132
     atom    3 type  2   force =     0.00000149   -0.00000116  -29.37596681
     atom    4 type  2   force =    -0.00000561    0.00000631   17.42953247
     atom    5 type  2   force =     0.00000000   -0.00000001 -118.18231803
     atom    6 type  2   force =    -0.00000004    0.00000012  -78.14644960
     atom    7 type  1   force =    -0.00000001   -0.00000002   34.91975589
     The local contribution  to forces
     atom    1 type  2   force =    -0.00000507    0.00000576  -67.33655963
     atom    2 type  2   force =     0.00000054   -0.00000098 -106.08430926
     atom    3 type  2   force =    -0.00000074    0.00000078   29.39765372
     atom    4 type  2   force =     0.00000474   -0.00000619  -17.44463500
     atom    5 type  2   force =     0.00000115    0.00000120  118.30996677
     atom    6 type  2   force =    -0.00000013    0.00000048   78.13765103
     atom    7 type  1   force =    -0.00000002    0.00000009  -34.97293004
     The core correction contribution to forces
     atom    1 type  2   force =    -0.00000004    0.00000004   -0.00123931
     atom    2 type  2   force =    -0.00000006   -0.00000007    0.00213561
     atom    3 type  2   force =    -0.00000002    0.00000000   -0.00034540
     atom    4 type  2   force =    -0.00000001    0.00000000    0.00039241
     atom    5 type  2   force =     0.00000004    0.00000004    0.00602405
     atom    6 type  2   force =     0.00000001   -0.00000001    0.00272971
     atom    7 type  1   force =     0.00000000    0.00000000    0.00000000
     The Hubbard contrib.    to forces
     atom    1 type  2   force =     0.00000000    0.00000000    0.00000000
     atom    2 type  2   force =     0.00000000    0.00000000    0.00000000
     atom    3 type  2   force =     0.00000000    0.00000000    0.00000000
     atom    4 type  2   force =     0.00000000    0.00000000    0.00000000
     atom    5 type  2   force =     0.00000000    0.00000000    0.00000000
     atom    6 type  2   force =     0.00000000    0.00000000    0.00000000
     atom    7 type  1   force =     0.00000000    0.00000000    0.00000000
     The SCF correction term to forces
     atom    1 type  2   force =    -0.00000004   -0.00000080    0.00015632
     atom    2 type  2   force =     0.00000161    0.00000065   -0.00172454
     atom    3 type  2   force =    -0.00000049    0.00000040    0.00042560
     atom    4 type  2   force =     0.00000022   -0.00000118    0.00035982
     atom    5 type  2   force =    -0.00000081   -0.00000143    0.00009720
     atom    6 type  2   force =     0.00000051    0.00000009    0.00073279
     atom    7 type  1   force =     0.00000057    0.00000015   -0.00018806

     DFT-D3 dispersion contribution to forces:
     atom    1 type  2   force =    -0.00000002    0.00000001   -0.00367349
     atom    2 type  2   force =    -0.00000000    0.00000000   -0.00385063
     atom    3 type  2   force =     0.00000000   -0.00000000    0.00272567
     atom    4 type  2   force =     0.00000002   -0.00000001   -0.00180083
     atom    5 type  2   force =    -0.00000000    0.00000000    0.00406916
     atom    6 type  2   force =    -0.00000000    0.00000000    0.00526283
     atom    7 type  1   force =    -0.00000000   -0.00000000   -0.00273271

     Total force =     0.024044     Total SCF correction =     0.001973


     Computing stress (Cartesian axis) and pressure


     negative rho (up, down):  1.289E-05 0.000E+00
          total   stress  (Ry/bohr**3)                   (kbar)     P=      -11.45
  -0.00006616   0.00000000   0.00000000           -9.73        0.00        0.00
   0.00000000  -0.00012899  -0.00000000            0.00      -18.98       -0.00
   0.00000000  -0.00000000  -0.00003843            0.00       -0.00       -5.65


     BFGS Geometry Optimization
     Energy error            =      0.0E+00 Ry
     Gradient error          =      1.5E-02 Ry/Bohr

     number of scf cycles    =   1
     number of bfgs steps    =   0

     energy             new  =    -520.5463815898 Ry

     new trust radius        =       0.0152324377 bohr
     new conv_thr            =       0.0000010000 Ry


ATOMIC_POSITIONS (angstrom)
Ag            2.1766593094        3.0782675048       15.8476012617
Ag            0.7255502328        1.0260902832       17.2054673559
Ag            2.1766647592        3.0782674206       12.9051141902
Ag            0.7255541518        1.0260895551       14.3512956940
Ag            2.1766628565        3.0782667787       10.0037523493
Ag            0.7255540888        1.0260899454       11.4472725095
Li            2.1766591693        1.0260902191       19.2208224346



     Writing config-only to output data dir ./Ag_mp-124_110_bridge_2/Ag_mp-124_110_bridge_2.save/
     NEW-OLD atomic charge density approx. for the potential

     negative rho (up, down):  1.337E-05 0.000E+00

     total cpu time spent up to now is       27.8 secs

     per-process dynamical memory:   187.8 Mb

     Self-consistent Calculation

     iteration #  1     ecut=    55.00 Ry     beta= 0.30
     Davidson diagonalization with overlap
     ethr =  1.00E-06,  avg # of iterations =  4.2

     Threshold (ethr) on eigenvalues was too large:
     Diagonalizing with lowered threshold

     Davidson diagonalization with overlap
     ethr =  5.15E-08,  avg # of iterations =  3.3

     negative rho (up, down):  1.325E-05 0.000E+00

     total cpu time spent up to now is       30.9 secs

     total energy              =    -520.54690426 Ry
     estimated scf accuracy    <       0.00004759 Ry

     iteration #  2     ecut=    55.00 Ry     beta= 0.30
     Davidson diagonalization with overlap
     ethr =  6.90E-08,  avg # of iterations =  2.6

     negative rho (up, down):  1.456E-05 0.000E+00

     total cpu time spent up to now is       31.9 secs

     total energy              =    -520.54686393 Ry
     estimated scf accuracy    <       0.00147486 Ry

     iteration #  3     ecut=    55.00 Ry     beta= 0.30
     Davidson diagonalization with overlap
     ethr =  6.90E-08,  avg # of iterations =  1.6

     negative rho (up, down):  1.592E-05 0.000E+00

     total cpu time spent up to now is       32.7 secs

     total energy              =    -520.54691451 Ry
     estimated scf accuracy    <       0.00008367 Ry

     iteration #  4     ecut=    55.00 Ry     beta= 0.30
     Davidson diagonalization with overlap
     ethr =  6.90E-08,  avg # of iterations =  1.2

     negative rho (up, down):  1.418E-05 0.000E+00

     total cpu time spent up to now is       33.3 secs

     total energy              =    -520.54692008 Ry
     estimated scf accuracy    <       0.00000840 Ry

     iteration #  5     ecut=    55.00 Ry     beta= 0.30
     Davidson diagonalization with overlap
     ethr =  1.22E-08,  avg # of iterations =  1.1

     negative rho (up, down):  1.311E-05 0.000E+00

     total cpu time spent up to now is       33.7 secs

     End of self-consistent calculation

          k = 0.0000 0.0000 0.0000 ( 15163 PWs)   bands (ev):

   -45.3000  -5.2741  -4.2953  -4.1425  -3.9315  -3.8404  -3.4688  -3.3691
    -3.1475  -3.0263  -2.9595  -2.7791  -2.6954  -2.6202  -2.5631  -2.5410
    -2.4399  -2.3409  -2.2414  -2.1742  -1.9658  -1.8840  -1.8712  -1.8507
    -1.7754  -1.7175  -1.5486  -1.4008  -1.3585  -1.0760  -1.0724  -0.9833
    -0.7784  -0.7396   0.7227   1.9007   3.4575   4.2808   4.8834   5.6174
     5.7449   5.8612

          k = 0.0000 0.0884 0.0000 ( 15115 PWs)   bands (ev):

   -45.2999  -5.1277  -4.2443  -4.1025  -3.8857  -3.8335  -3.6249  -3.4286
    -3.1932  -2.9503  -2.8065  -2.7685  -2.7073  -2.5926  -2.5439  -2.4452
    -2.4347  -2.3036  -2.1833  -2.1295  -2.1278  -1.8854  -1.8712  -1.7778
    -1.7389  -1.6191  -1.5582  -1.5011  -1.2030  -1.1540  -1.1434  -0.9302
    -0.8304  -0.7141   0.8050   2.0082   3.2899   3.5468   4.7358   5.0226
     5.6959   5.8737

          k = 0.0000 0.1768 0.0000 ( 15114 PWs)   bands (ev):

   -45.2999  -4.7203  -4.1671  -3.9895  -3.8811  -3.8279  -3.7455  -3.4629
    -3.0937  -2.9415  -2.8468  -2.6515  -2.5841  -2.5546  -2.4966  -2.4939
    -2.3766  -2.3091  -2.1655  -2.1538  -1.9632  -1.9103  -1.7684  -1.6795
    -1.6456  -1.5353  -1.5188  -1.3895  -1.3233  -1.1944  -1.0743  -0.9438
    -0.8855  -0.5632   1.0691   1.5376   2.3937   2.9780   3.7079   4.4206
     5.3001   5.6878

          k = 0.0000 0.2652 0.0000 ( 15152 PWs)   bands (ev):

   -45.2999  -4.2098  -4.1692  -4.0289  -3.8498  -3.8189  -3.5288  -3.4223
    -3.0779  -2.9036  -2.7865  -2.6579  -2.6390  -2.5783  -2.5407  -2.4115
    -2.3764  -2.2390  -2.2291  -2.0624  -1.9790  -1.9268  -1.7197  -1.6126
    -1.4384  -1.4166  -1.3376  -1.3001  -1.2053  -1.1219  -1.0633  -0.9501
    -0.9004  -0.0199   0.0084   1.2170   1.6979   2.6314   3.0120   3.7127
     4.4174   6.0277

          k = 0.0000-0.3536 0.0000 ( 15118 PWs)   bands (ev):

   -45.2998  -4.1924  -4.1184  -3.8732  -3.8499  -3.7704  -3.4082  -3.3532
    -3.1539  -2.7973  -2.7519  -2.6931  -2.6858  -2.6265  -2.5804  -2.3402
    -2.3246  -2.2632  -2.1887  -2.0890  -2.0587  -1.9493  -1.7733  -1.4775
    -1.3479  -1.2600  -1.2292  -1.1819  -1.1174  -1.1011  -1.0513  -0.9500
    -0.9105  -0.2328  -0.2191   1.1395   1.3701   2.1048   3.1625   3.6823
     3.7359   6.4742

          k = 0.1250-0.0000 0.0000 ( 15077 PWs)   bands (ev):

   -45.2982  -4.9682  -4.0894  -3.9215  -3.8102  -3.6472  -3.3404  -3.2479
    -3.1868  -3.1616  -3.0436  -2.8827  -2.8023  -2.6938  -2.6850  -2.5068
    -2.4606  -2.3582  -2.3315  -2.2454  -1.9813  -1.8669  -1.7492  -1.7333
    -1.6807  -1.5927  -1.4842  -1.4379  -1.3040  -1.2194  -1.2009  -0.9497
    -0.8110  -0.6043   0.9475   2.1802   3.7659   4.9628   5.1603   5.9057
     6.0240   6.3117

          k = 0.1250 0.0884 0.0000 ( 15111 PWs)   bands (ev):

   -45.2983  -4.8306  -4.0308  -3.8795  -3.7758  -3.6225  -3.4975  -3.3194
    -3.1653  -3.0749  -2.9704  -2.8414  -2.7431  -2.6637  -2.5930  -2.4465
    -2.4365  -2.4083  -2.3085  -2.2390  -2.0746  -1.9827  -1.8045  -1.7419
    -1.6581  -1.5877  -1.4831  -1.4476  -1.2292  -1.1848  -1.1376  -0.9877
    -0.8873  -0.5083   1.0618   2.3023   3.8538   3.9156   5.1276   5.3157
     6.0128   6.1579

          k = 0.1250 0.1768 0.0000 ( 15135 PWs)   bands (ev):

   -45.2983  -4.4501  -3.9509  -3.7484  -3.7056  -3.6796  -3.5772  -3.3002
    -3.1053  -3.0075  -2.9188  -2.7590  -2.6851  -2.5725  -2.5034  -2.4426
    -2.3491  -2.3353  -2.3019  -2.2159  -2.1403  -2.0007  -1.9097  -1.8936
    -1.6798  -1.6218  -1.4694  -1.3565  -1.1864  -1.1407  -1.1163  -1.0021
    -0.9928  -0.1306   1.4085   2.0993   2.7425   3.3657   4.1154   4.7378
     5.6094   5.9599

          k = 0.1250 0.2652 0.0000 ( 15153 PWs)   bands (ev):

   -45.2984  -3.9863  -3.9552  -3.8215  -3.5692  -3.5563  -3.4795  -3.2784
    -3.0703  -2.9073  -2.8465  -2.7485  -2.6235  -2.5692  -2.5429  -2.4647
    -2.4017  -2.3552  -2.2986  -2.0817  -2.0723  -2.0473  -1.9227  -1.7531
    -1.6769  -1.5670  -1.4926  -1.4279  -1.2469  -1.2002  -1.0899  -1.0465
    -0.5936   0.5478   0.5786   1.7054   2.0905   3.0868   3.3340   4.1254
     4.7139   6.2882

          k = 0.1250-0.3536 0.0000 ( 15168 PWs)   bands (ev):

   -45.2984  -3.9882  -3.9064  -3.6114  -3.6049  -3.4781  -3.3793  -3.2577
    -3.0592  -2.8641  -2.7893  -2.7022  -2.6747  -2.5892  -2.5856  -2.5655
    -2.4202  -2.3790  -2.2495  -2.1427  -2.0596  -1.9899  -1.9169  -1.6669
    -1.5681  -1.5325  -1.4727  -1.3879  -1.3465  -1.2207  -1.1424  -0.6494
    -0.5994   0.3088   0.3561   1.7348   1.7545   2.6560   3.4438   4.0541
     4.0987   6.7260

          k = 0.1250-0.2652 0.0000 ( 15153 PWs)   bands (ev):

   -45.2984  -3.9863  -3.9552  -3.8215  -3.5692  -3.5563  -3.4795  -3.2784
    -3.0703  -2.9073  -2.8465  -2.7485  -2.6235  -2.5692  -2.5429  -2.4647
    -2.4017  -2.3552  -2.2986  -2.0817  -2.0723  -2.0473  -1.9227  -1.7531
    -1.6769  -1.5670  -1.4926  -1.4279  -1.2469  -1.2002  -1.0899  -1.0465
    -0.5936   0.5478   0.5786   1.7054   2.0905   3.0868   3.3340   4.1254
     4.7139   6.2882

          k = 0.1250-0.1768 0.0000 ( 15135 PWs)   bands (ev):

   -45.2983  -4.4501  -3.9509  -3.7484  -3.7056  -3.6796  -3.5772  -3.3002
    -3.1053  -3.0075  -2.9188  -2.7590  -2.6851  -2.5725  -2.5034  -2.4426
    -2.3491  -2.3353  -2.3019  -2.2159  -2.1403  -2.0007  -1.9097  -1.8936
    -1.6798  -1.6218  -1.4694  -1.3565  -1.1864  -1.1407  -1.1163  -1.0021
    -0.9928  -0.1306   1.4085   2.0993   2.7425   3.3657   4.1154   4.7378
     5.6094   5.9599

          k = 0.1250-0.0884 0.0000 ( 15111 PWs)   bands (ev):

   -45.2983  -4.8306  -4.0308  -3.8795  -3.7758  -3.6225  -3.4975  -3.3194
    -3.1653  -3.0749  -2.9704  -2.8414  -2.7431  -2.6637  -2.5930  -2.4465
    -2.4365  -2.4083  -2.3085  -2.2390  -2.0746  -1.9827  -1.8045  -1.7419
    -1.6581  -1.5877  -1.4831  -1.4476  -1.2292  -1.1848  -1.1376  -0.9877
    -0.8873  -0.5083   1.0618   2.3023   3.8538   3.9156   5.1276   5.3157
     6.0128   6.1580

          k = 0.2500-0.0000 0.0000 ( 15101 PWs)   bands (ev):

   -45.2945  -4.2315  -3.8775  -3.6819  -3.6658  -3.6354  -3.5459  -3.4073
    -3.2396  -3.1543  -3.0870  -2.9516  -2.8381  -2.6688  -2.6002  -2.4595
    -2.3766  -2.1587  -1.9917  -1.9881  -1.8415  -1.7826  -1.7118  -1.6891
    -1.5835  -1.4751  -1.3886  -1.3644  -1.2839  -1.2082  -1.1614  -0.8493
    -0.8059  -0.0749   1.5922   2.9748   4.5714   5.9495   6.6052   6.6739
     6.8224   7.5026

          k = 0.2500 0.0884 0.0000 ( 15103 PWs)   bands (ev):

   -45.2945  -4.1590  -3.8266  -3.6684  -3.6516  -3.5439  -3.4498  -3.3891
    -3.2208  -3.0940  -3.0792  -2.9158  -2.8069  -2.6626  -2.5341  -2.4810
    -2.3807  -2.2458  -2.1686  -1.9986  -1.9111  -1.8130  -1.7468  -1.6867
    -1.6119  -1.5321  -1.4445  -1.3537  -1.2786  -1.1118  -1.0720  -0.9075
    -0.8639   0.1710   1.7602   3.1266   4.6898   5.2852   6.0551   6.2277
     6.8265   6.9627

          k = 0.2500 0.1768 0.0000 ( 15121 PWs)   bands (ev):

   -45.2945  -3.9852  -3.7275  -3.6120  -3.5520  -3.3489  -3.3095  -3.2318
    -3.1196  -3.0493  -2.9814  -2.8724  -2.7524  -2.6594  -2.5846  -2.4431
    -2.4250  -2.3459  -2.2332  -2.1215  -1.9353  -1.9038  -1.8390  -1.8242
    -1.7101  -1.6649  -1.4868  -1.4341  -1.2574  -1.1304  -1.0074  -1.0007
    -0.5508   0.7648   2.2162   3.2505   3.6971   4.2963   5.1836   5.5486
     6.5023   6.7461

          k = 0.2500 0.2652 0.0000 ( 15099 PWs)   bands (ev):

   -45.2944  -3.8036  -3.6135  -3.5393  -3.4909  -3.1739  -3.1284  -3.0628
    -3.0353  -2.9420  -2.9141  -2.8787  -2.7240  -2.6241  -2.5803  -2.5074
    -2.4714  -2.3343  -2.2603  -2.1815  -2.0230  -1.9840  -1.9602  -1.8794
    -1.8420  -1.6770  -1.6213  -1.5292  -1.2366  -1.1772  -1.1137  -0.8048
     0.2146   1.4828   1.6574   2.7412   2.9569   3.9770   4.4150   5.1805
     5.6630   7.0452

          k = 0.2500-0.3536 0.0000 ( 15096 PWs)   bands (ev):

   -45.2944  -3.7059  -3.5691  -3.5375  -3.4173  -3.1818  -3.1118  -3.0034
    -2.9870  -2.9201  -2.9165  -2.7959  -2.6418  -2.5604  -2.5316  -2.5202
    -2.4366  -2.3991  -2.2372  -2.2068  -2.1376  -2.0716  -1.9937  -1.9325
    -1.9134  -1.6873  -1.6820  -1.3991  -1.3887  -1.2840  -1.1621   0.1131
     0.2327   1.1703   1.3648   2.5528   2.8766   3.8358   4.2008   5.0589
     5.3058   7.5444

          k = 0.2500-0.2652 0.0000 ( 15099 PWs)   bands (ev):

   -45.2944  -3.8036  -3.6135  -3.5393  -3.4909  -3.1739  -3.1284  -3.0628
    -3.0353  -2.9420  -2.9141  -2.8787  -2.7240  -2.6241  -2.5803  -2.5074
    -2.4714  -2.3343  -2.2603  -2.1815  -2.0230  -1.9840  -1.9602  -1.8794
    -1.8420  -1.6770  -1.6213  -1.5292  -1.2366  -1.1772  -1.1137  -0.8048
     0.2146   1.4828   1.6574   2.7412   2.9569   3.9770   4.4150   5.1805
     5.6630   7.0452

          k = 0.2500-0.1768 0.0000 ( 15121 PWs)   bands (ev):

   -45.2945  -3.9852  -3.7275  -3.6120  -3.5520  -3.3489  -3.3095  -3.2318
    -3.1196  -3.0493  -2.9814  -2.8724  -2.7524  -2.6594  -2.5846  -2.4431
    -2.4250  -2.3459  -2.2332  -2.1215  -1.9353  -1.9038  -1.8390  -1.8242
    -1.7101  -1.6649  -1.4868  -1.4341  -1.2574  -1.1304  -1.0074  -1.0007
    -0.5508   0.7648   2.2162   3.2505   3.6971   4.2963   5.1836   5.5486
     6.5023   6.7461

          k = 0.2500-0.0884 0.0000 ( 15103 PWs)   bands (ev):

   -45.2945  -4.1590  -3.8266  -3.6684  -3.6516  -3.5439  -3.4498  -3.3891
    -3.2208  -3.0940  -3.0792  -2.9158  -2.8069  -2.6626  -2.5341  -2.4810
    -2.3807  -2.2458  -2.1686  -1.9986  -1.9111  -1.8130  -1.7468  -1.6867
    -1.6119  -1.5321  -1.4445  -1.3537  -1.2786  -1.1118  -1.0720  -0.9075
    -0.8639   0.1710   1.7602   3.1266   4.6898   5.2852   6.0551   6.2277
     6.8265   6.9626

          k = 0.3750-0.0000 0.0000 ( 15069 PWs)   bands (ev):

   -45.2906  -4.1108  -3.9611  -3.9432  -3.8688  -3.7191  -3.5033  -3.5029
    -3.4229  -3.1958  -2.9748  -2.9606  -2.7474  -2.7056  -2.6861  -2.3288
    -2.1627  -1.8718  -1.8660  -1.8092  -1.5953  -1.5823  -1.3940  -1.2966
    -1.2440  -1.2048  -1.1387  -1.0849  -1.0704  -0.8760  -0.7905  -0.4408
    -0.1054   1.1684   2.5650   4.0423   4.4171   5.0097   5.4749   6.6447
     7.4569   8.1360

          k = 0.3750 0.0884 0.0000 ( 15052 PWs)   bands (ev):

   -45.2906  -4.0462  -3.9196  -3.8802  -3.8246  -3.7289  -3.5257  -3.4399
    -3.3936  -3.2418  -3.0517  -2.8437  -2.7287  -2.6423  -2.5713  -2.2718
    -2.1549  -2.0142  -1.8980  -1.8208  -1.7522  -1.5342  -1.4610  -1.4463
    -1.3073  -1.2056  -1.1479  -1.0757  -1.0623  -0.9365  -0.8802  -0.4458
     0.1078   1.4390   2.7688   4.2348   4.5210   5.1909   5.5632   6.7953
     7.1439   7.4697

          k = 0.3750 0.1768 0.0000 ( 15049 PWs)   bands (ev):

   -45.2905  -3.9101  -3.8773  -3.7594  -3.7228  -3.6102  -3.5456  -3.3331
    -3.3115  -3.1503  -2.9904  -2.8197  -2.6774  -2.5515  -2.4483  -2.3712
    -2.2417  -2.0968  -2.0108  -1.9254  -1.8988  -1.6993  -1.6087  -1.4947
    -1.3329  -1.2857  -1.1933  -1.1577  -1.0663  -1.0016  -0.9716  -0.3732
     0.6823   2.0392   3.2970   4.1504   4.8714   5.3015   5.6235   6.0174
     6.5632   7.0021

          k = 0.3750 0.2652 0.0000 ( 15057 PWs)   bands (ev):

   -45.2905  -3.9637  -3.8038  -3.6573  -3.4887  -3.4791  -3.3149  -3.2324
    -3.1134  -2.9958  -2.9204  -2.8076  -2.7551  -2.6151  -2.5216  -2.4419
    -2.4163  -2.3453  -2.2001  -2.0281  -1.8969  -1.6879  -1.6135  -1.5691
    -1.4649  -1.3288  -1.2865  -1.1573  -1.1076  -1.0634  -1.0179   0.1865
     1.4722   2.6634   2.8411   3.9347   4.1969   5.2369   5.6116   6.2499
     6.7340   6.9445

          k = 0.3750-0.3536 0.0000 ( 15056 PWs)   bands (ev):

   -45.2905  -3.9619  -3.8861  -3.4621  -3.3888  -3.3025  -3.2472  -3.1208
    -3.0976  -2.9021  -2.8948  -2.8642  -2.8087  -2.7078  -2.6595  -2.5981
    -2.4400  -2.3055  -2.2486  -2.0694  -1.8877  -1.7639  -1.6181  -1.6141
    -1.4051  -1.3329  -1.2685  -1.2494  -1.1643  -1.1233  -1.0292   1.1878
     1.3811   2.3429   2.7525   3.5355   4.3579   5.0775   5.4169   6.6641
     6.9966   7.1944

          k = 0.3750-0.2652 0.0000 ( 15057 PWs)   bands (ev):

   -45.2905  -3.9637  -3.8038  -3.6573  -3.4887  -3.4791  -3.3149  -3.2324
    -3.1134  -2.9958  -2.9204  -2.8076  -2.7551  -2.6151  -2.5216  -2.4419
    -2.4163  -2.3453  -2.2001  -2.0281  -1.8969  -1.6879  -1.6135  -1.5691
    -1.4649  -1.3288  -1.2865  -1.1573  -1.1076  -1.0634  -1.0179   0.1865
     1.4722   2.6634   2.8411   3.9347   4.1969   5.2369   5.6116   6.2500
     6.7340   6.9445

          k = 0.3750-0.1768 0.0000 ( 15049 PWs)   bands (ev):

   -45.2905  -3.9101  -3.8773  -3.7594  -3.7228  -3.6102  -3.5456  -3.3331
    -3.3115  -3.1503  -2.9904  -2.8197  -2.6774  -2.5515  -2.4483  -2.3712
    -2.2417  -2.0968  -2.0108  -1.9254  -1.8988  -1.6993  -1.6087  -1.4947
    -1.3329  -1.2857  -1.1933  -1.1577  -1.0663  -1.0016  -0.9716  -0.3732
     0.6823   2.0392   3.2970   4.1504   4.8714   5.3015   5.6235   6.0174
     6.5632   7.0021

          k = 0.3750-0.0884 0.0000 ( 15052 PWs)   bands (ev):

   -45.2906  -4.0462  -3.9196  -3.8802  -3.8246  -3.7289  -3.5257  -3.4399
    -3.3936  -3.2418  -3.0517  -2.8437  -2.7287  -2.6423  -2.5713  -2.2718
    -2.1549  -2.0142  -1.8980  -1.8208  -1.7522  -1.5342  -1.4610  -1.4463
    -1.3073  -1.2056  -1.1479  -1.0757  -1.0623  -0.9365  -0.8802  -0.4458
     0.1078   1.4390   2.7688   4.2348   4.5210   5.1909   5.5632   6.7953
     7.1439   7.4697

          k =-0.5000 0.0000 0.0000 ( 14992 PWs)   bands (ev):

   -45.2889  -4.2236  -4.0784  -4.0581  -3.9905  -3.6689  -3.5921  -3.5627
    -3.5084  -3.1114  -3.0871  -2.8306  -2.7962  -2.7510  -2.7048  -2.1753
    -2.0780  -1.8662  -1.8033  -1.7495  -1.5142  -1.3267  -1.3049  -1.2138
    -1.1976  -1.1201  -1.0693  -0.9926  -0.8622  -0.8348  -0.8173   1.6302
     1.6407   2.2069   2.2651   2.8540   3.2134   3.6200   5.8563   6.2194
     7.1306   8.9310

          k =-0.5000 0.0884 0.0000 ( 14998 PWs)   bands (ev):

   -45.2889  -4.1532  -4.0256  -3.9874  -3.9366  -3.6957  -3.6762  -3.5237
    -3.4049  -3.2807  -3.0985  -2.8616  -2.7085  -2.6376  -2.6005  -2.1459
    -2.0014  -1.9196  -1.8351  -1.7738  -1.6673  -1.4345  -1.3287  -1.2475
    -1.2219  -1.1776  -1.0823  -0.9951  -0.9452  -0.9092  -0.7985   1.6946
     1.7000   2.3607   2.4422   3.0056   3.5291   3.9246   5.9401   6.3604
     7.2539   8.8603

          k =-0.5000 0.1768 0.0000 ( 15026 PWs)   bands (ev):

   -45.2889  -3.9668  -3.9243  -3.8527  -3.8314  -3.7398  -3.7299  -3.4289
    -3.3290  -3.2132  -3.0731  -2.8512  -2.6913  -2.5253  -2.4683  -2.2755
    -2.0664  -1.9970  -1.8839  -1.8746  -1.8141  -1.5494  -1.4861  -1.4084
    -1.3408  -1.2826  -1.1212  -1.0430  -0.8832  -0.8786  -0.8087   1.8527
     1.9009   2.7312   2.9128   3.4175   4.2976   4.6992   6.1538   6.7514
     7.4535   7.5944

          k =-0.5000 0.2652 0.0000 ( 15032 PWs)   bands (ev):

   -45.2889  -4.0253  -3.9543  -3.7316  -3.6433  -3.5087  -3.4840  -3.3750
    -3.1569  -3.0259  -2.9993  -2.8245  -2.7959  -2.5605  -2.5038  -2.4493
    -2.3675  -2.2141  -2.0821  -2.0686  -1.8809  -1.6147  -1.4762  -1.4755
    -1.3737  -1.2136  -1.0175  -1.0090  -0.8868  -0.8824  -0.8211   2.0817
     2.1987   3.1696   3.5292   3.9109   5.2497   5.6232   6.1649   6.2352
     6.3388   6.8196

          k =-0.5000-0.3536 0.0000 ( 15032 PWs)   bands (ev):

   -45.2888  -4.0725  -4.0102  -3.5608  -3.4962  -3.4718  -3.3568  -3.1819
    -3.0807  -3.0263  -2.8796  -2.8465  -2.7662  -2.7215  -2.7080  -2.6855
    -2.4698  -2.2013  -2.1672  -2.0479  -1.9144  -1.7491  -1.5710  -1.3314
    -1.2965  -1.2870  -0.9572  -0.9487  -0.8976  -0.8976  -0.8150   2.2160
     2.3857   3.3970   3.9104   4.1420   5.6583   5.6705   6.0149   6.1657
     6.2772   6.2987

     the Fermi energy is     1.9686 ev

!    total energy              =    -520.54692062 Ry
     estimated scf accuracy    <       0.00000029 Ry
     smearing contrib. (-TS)   =       0.00005270 Ry
     internal energy E=F+TS    =    -520.54697332 Ry

     The total energy is F=E-TS. E is the sum of the following terms:
     one-electron contribution =   -5294.22966918 Ry
     hartree contribution      =    2693.68349646 Ry
     xc contribution           =    -137.52032947 Ry
     ewald contribution        =    2217.68649166 Ry
     DFT-D3 Dispersion         =      -0.16696278 Ry

     convergence has been achieved in   5 iterations

     negative rho (up, down):  1.311E-05 0.000E+00

     Forces acting on atoms (cartesian axes, Ry/au):

     atom    1 type  2   force =     0.00000368   -0.00000103   -0.00289059
     atom    2 type  2   force =    -0.00000335   -0.00000286   -0.01101828
     atom    3 type  2   force =    -0.00000078   -0.00000066    0.00454029
     atom    4 type  2   force =     0.00000004    0.00000213   -0.00411795
     atom    5 type  2   force =    -0.00000010    0.00000070    0.00676129
     atom    6 type  2   force =     0.00000016    0.00000108   -0.00658573
     atom    7 type  1   force =     0.00000035    0.00000065    0.01331098
     The non-local contrib.  to forces
     atom    1 type  2   force =     0.00000333   -0.00000296    0.01803614
     atom    2 type  2   force =    -0.00000506   -0.00000375    0.03820250
     atom    3 type  2   force =    -0.00000113   -0.00000132   -0.01963787
     atom    4 type  2   force =    -0.00000027    0.00000198    0.01254662
     atom    5 type  2   force =    -0.00000139    0.00000010   -0.13058181
     atom    6 type  2   force =    -0.00000054    0.00000006   -0.00596324
     atom    7 type  1   force =    -0.00000013   -0.00000062    0.07055341
     The ionic contribution  to forces
     atom    1 type  2   force =     0.00000539    0.00001085   67.40619373
     atom    2 type  2   force =    -0.00000195   -0.00000768  106.08999371
     atom    3 type  2   force =    -0.00000328    0.00000927  -29.32458341
     atom    4 type  2   force =    -0.00000253   -0.00000616   17.37840097
     atom    5 type  2   force =    -0.00000010    0.00001039 -118.18253467
     atom    6 type  2   force =     0.00000232   -0.00001644  -78.24178376
     atom    7 type  1   force =     0.00000015   -0.00000023   34.87431343
     The local contribution  to forces
     atom    1 type  2   force =    -0.00000561   -0.00000966  -67.42261103
     atom    2 type  2   force =     0.00000291    0.00000710 -106.13831971
     atom    3 type  2   force =     0.00000272   -0.00000923   29.34714272
     atom    4 type  2   force =     0.00000199    0.00000600  -17.39360168
     atom    5 type  2   force =     0.00000076   -0.00000966  118.30972349
     atom    6 type  2   force =    -0.00000167    0.00001625   78.23325540
     atom    7 type  1   force =    -0.00000005    0.00000068  -34.92866559
     The core correction contribution to forces
     atom    1 type  2   force =     0.00000002    0.00000002   -0.00123625
     atom    2 type  2   force =     0.00000010    0.00000004    0.00175703
     atom    3 type  2   force =     0.00000000   -0.00000001   -0.00022950
     atom    4 type  2   force =    -0.00000001    0.00000006    0.00041555
     atom    5 type  2   force =     0.00000009    0.00000007    0.00607457
     atom    6 type  2   force =     0.00000002    0.00000007    0.00263144
     atom    7 type  1   force =     0.00000000    0.00000000    0.00000000
     The Hubbard contrib.    to forces
     atom    1 type  2   force =     0.00000000    0.00000000    0.00000000
     atom    2 type  2   force =     0.00000000    0.00000000    0.00000000
     atom    3 type  2   force =     0.00000000    0.00000000    0.00000000
     atom    4 type  2   force =     0.00000000    0.00000000    0.00000000
     atom    5 type  2   force =     0.00000000    0.00000000    0.00000000
     atom    6 type  2   force =     0.00000000    0.00000000    0.00000000
     atom    7 type  1   force =     0.00000000    0.00000000    0.00000000
     The SCF correction term to forces
     atom    1 type  2   force =     0.00000013   -0.00000010    0.00051136
     atom    2 type  2   force =     0.00000021    0.00000060    0.00138959
     atom    3 type  2   force =     0.00000046   -0.00000019   -0.00079434
     atom    4 type  2   force =     0.00000041   -0.00000057    0.00008279
     atom    5 type  2   force =     0.00000011   -0.00000101    0.00011412
     atom    6 type  2   force =    -0.00000040    0.00000031    0.00020537
     atom    7 type  1   force =    -0.00000006   -0.00000000    0.00000128

     DFT-D3 dispersion contribution to forces:
     atom    1 type  2   force =    -0.00000002   -0.00000001   -0.00364135
     atom    2 type  2   force =     0.00000000    0.00000001   -0.00389820
     atom    3 type  2   force =     0.00000002   -0.00000001    0.00278588
     atom    4 type  2   force =     0.00000001    0.00000000   -0.00181901
     atom    5 type  2   force =    -0.00000000   -0.00000001    0.00410878
     atom    6 type  2   force =    -0.00000001    0.00000001    0.00521226
     atom    7 type  1   force =    -0.00000000   -0.00000000   -0.00274835

     Total force =     0.020823     Total SCF correction =     0.001699


     Computing stress (Cartesian axis) and pressure


     negative rho (up, down):  1.311E-05 0.000E+00
          total   stress  (Ry/bohr**3)                   (kbar)     P=      -10.96
  -0.00006358  -0.00000000   0.00000000           -9.35       -0.00        0.00
  -0.00000000  -0.00012419  -0.00000000           -0.00      -18.27       -0.00
   0.00000000  -0.00000000  -0.00003583            0.00       -0.00       -5.27

     Energy error            =      5.4E-04 Ry
     Gradient error          =      1.3E-02 Ry/Bohr

     number of scf cycles    =   2
     number of bfgs steps    =   1

     energy             old  =    -520.5463815898 Ry
     energy             new  =    -520.5469206186 Ry

     CASE: energy            _new < energy            _old


     WARNING: bfgs curvature condition failed, Theta= 0.926
     new trust radius        =       0.0167556815 bohr
     new conv_thr            =       0.0000000539 Ry


ATOMIC_POSITIONS (angstrom)
Ag            2.1766614609        3.0782667953       15.8457012421
Ag            0.7255483092        1.0260885847       17.1980502255
Ag            2.1766644370        3.0782670507       12.9081568534
Ag            0.7255541262        1.0260908726       14.3486102885
Ag            2.1766626971        3.0782671291       10.0082135098
Ag            0.7255541250        1.0260906891       11.4429045163
Li            2.1766594124        1.0260905854       19.2296891594



     Writing config-only to output data dir ./Ag_mp-124_110_bridge_2/Ag_mp-124_110_bridge_2.save/
     NEW-OLD atomic charge density approx. for the potential

     negative rho (up, down):  1.355E-05 0.000E+00

     total cpu time spent up to now is       36.9 secs

     per-process dynamical memory:   188.7 Mb

     Self-consistent Calculation

     iteration #  1     ecut=    55.00 Ry     beta= 0.30
     Davidson diagonalization with overlap
     ethr =  1.00E-06,  avg # of iterations =  4.3

     Threshold (ethr) on eigenvalues was too large:
     Diagonalizing with lowered threshold

     Davidson diagonalization with overlap
     ethr =  2.48E-08,  avg # of iterations =  5.1

     negative rho (up, down):  1.340E-05 0.000E+00

     total cpu time spent up to now is       38.7 secs

     total energy              =    -520.54742845 Ry
     estimated scf accuracy    <       0.00001968 Ry

     iteration #  2     ecut=    55.00 Ry     beta= 0.30
     Davidson diagonalization with overlap
     ethr =  2.85E-08,  avg # of iterations =  1.5

     negative rho (up, down):  1.406E-05 0.000E+00

     total cpu time spent up to now is       39.2 secs

     total energy              =    -520.54742685 Ry
     estimated scf accuracy    <       0.00002821 Ry

     iteration #  3     ecut=    55.00 Ry     beta= 0.30
     Davidson diagonalization with overlap
     ethr =  2.85E-08,  avg # of iterations =  1.4

     negative rho (up, down):  1.486E-05 0.000E+00

     total cpu time spent up to now is       39.6 secs

     total energy              =    -520.54742731 Ry
     estimated scf accuracy    <       0.00006403 Ry

     iteration #  4     ecut=    55.00 Ry     beta= 0.30
     Davidson diagonalization with overlap
     ethr =  2.85E-08,  avg # of iterations =  1.0

     negative rho (up, down):  1.469E-05 0.000E+00

     total cpu time spent up to now is       40.0 secs

     total energy              =    -520.54742892 Ry
     estimated scf accuracy    <       0.00006178 Ry

     iteration #  5     ecut=    55.00 Ry     beta= 0.30
     Davidson diagonalization with overlap
     ethr =  2.85E-08,  avg # of iterations =  1.0

     negative rho (up, down):  1.413E-05 0.000E+00

     total cpu time spent up to now is       40.5 secs

     total energy              =    -520.54743141 Ry
     estimated scf accuracy    <       0.00000078 Ry

     iteration #  6     ecut=    55.00 Ry     beta= 0.30
     Davidson diagonalization with overlap
     ethr =  1.13E-09,  avg # of iterations =  2.0

     negative rho (up, down):  1.328E-05 0.000E+00

     total cpu time spent up to now is       41.0 secs

     total energy              =    -520.54743151 Ry
     estimated scf accuracy    <       0.00000014 Ry

     iteration #  7     ecut=    55.00 Ry     beta= 0.30
     Davidson diagonalization with overlap
     ethr =  1.97E-10,  avg # of iterations =  2.8

     negative rho (up, down):  1.329E-05 0.000E+00

     total cpu time spent up to now is       41.5 secs

     End of self-consistent calculation

          k = 0.0000 0.0000 0.0000 ( 15163 PWs)   bands (ev):

   -45.3181  -5.2812  -4.3003  -4.1487  -3.9351  -3.8442  -3.4732  -3.3756
    -3.1508  -3.0294  -2.9645  -2.7789  -2.6974  -2.6273  -2.5685  -2.5452
    -2.4396  -2.3457  -2.2439  -2.1710  -1.9703  -1.8946  -1.8720  -1.8562
    -1.7794  -1.7219  -1.5508  -1.4047  -1.3579  -1.0798  -1.0767  -0.9818
    -0.7799  -0.7410   0.7198   1.8913   3.4592   4.2769   4.8855   5.6182
     5.7510   5.8629

          k = 0.0000 0.0884 0.0000 ( 15115 PWs)   bands (ev):

   -45.3180  -5.1347  -4.2490  -4.1084  -3.8896  -3.8368  -3.6300  -3.4360
    -3.1968  -2.9534  -2.8096  -2.7704  -2.7107  -2.5993  -2.5468  -2.4462
    -2.4379  -2.3048  -2.1911  -2.1320  -2.1285  -1.8861  -1.8762  -1.7824
    -1.7420  -1.6271  -1.5599  -1.5042  -1.2027  -1.1577  -1.1461  -0.9303
    -0.8322  -0.7151   0.8020   1.9988   3.2861   3.5473   4.7358   5.0247
     5.6953   5.8795

          k = 0.0000 0.1768 0.0000 ( 15114 PWs)   bands (ev):

   -45.3180  -4.7273  -4.1720  -3.9936  -3.8875  -3.8289  -3.7513  -3.4713
    -3.0979  -2.9444  -2.8539  -2.6538  -2.5883  -2.5553  -2.5018  -2.4964
    -2.3827  -2.3089  -2.1686  -2.1567  -1.9644  -1.9148  -1.7715  -1.6828
    -1.6487  -1.5377  -1.5208  -1.3942  -1.3256  -1.1981  -1.0727  -0.9471
    -0.8864  -0.5636   1.0661   1.5330   2.3843   2.9769   3.7054   4.4184
     5.2939   5.6812

          k = 0.0000 0.2652 0.0000 ( 15152 PWs)   bands (ev):

   -45.3181  -4.2175  -4.1740  -4.0353  -3.8492  -3.8222  -3.5352  -3.4306
    -3.0854  -2.9070  -2.7929  -2.6617  -2.6424  -2.5783  -2.5479  -2.4143
    -2.3777  -2.2415  -2.2337  -2.0625  -1.9829  -1.9352  -1.7243  -1.6100
    -1.4395  -1.4147  -1.3408  -1.2995  -1.2086  -1.1242  -1.0660  -0.9529
    -0.9020  -0.0207   0.0039   1.2158   1.6922   2.6270   3.0009   3.7138
     4.4003   6.0276

          k = 0.0000-0.3536 0.0000 ( 15118 PWs)   bands (ev):

   -45.3180  -4.1984  -4.1253  -3.8785  -3.8530  -3.7698  -3.4133  -3.3607
    -3.1647  -2.8016  -2.7569  -2.6957  -2.6899  -2.6300  -2.5869  -2.3413
    -2.3222  -2.2670  -2.1916  -2.0979  -2.0602  -1.9538  -1.7815  -1.4734
    -1.3446  -1.2610  -1.2313  -1.1842  -1.1182  -1.1038  -1.0523  -0.9535
    -0.9134  -0.2360  -0.2194   1.1387   1.3627   2.0991   3.1604   3.6712
     3.7223   6.4701

          k = 0.1250-0.0000 0.0000 ( 15077 PWs)   bands (ev):

   -45.3164  -4.9753  -4.0954  -3.9276  -3.8141  -3.6514  -3.3454  -3.2519
    -3.1921  -3.1688  -3.0469  -2.8855  -2.8053  -2.6991  -2.6874  -2.5129
    -2.4648  -2.3561  -2.3377  -2.2450  -1.9839  -1.8684  -1.7561  -1.7361
    -1.6840  -1.5960  -1.4889  -1.4390  -1.3069  -1.2165  -1.2034  -0.9535
    -0.8118  -0.6043   0.9449   2.1713   3.7668   4.9596   5.1623   5.9064
     6.0300   6.3133

          k = 0.1250 0.0884 0.0000 ( 15111 PWs)   bands (ev):

   -45.3165  -4.8377  -4.0364  -3.8855  -3.7806  -3.6254  -3.5051  -3.3228
    -3.1692  -3.0803  -2.9747  -2.8456  -2.7454  -2.6689  -2.5972  -2.4496
    -2.4408  -2.4128  -2.3079  -2.2391  -2.0774  -1.9900  -1.8088  -1.7455
    -1.6597  -1.5891  -1.4842  -1.4497  -1.2328  -1.1844  -1.1393  -0.9916
    -0.8887  -0.5085   1.0590   2.2936   3.8545   3.9117   5.1276   5.3179
     6.0123   6.1638

          k = 0.1250 0.1768 0.0000 ( 15135 PWs)   bands (ev):

   -45.3165  -4.4572  -3.9563  -3.7528  -3.7125  -3.6866  -3.5777  -3.3060
    -3.1094  -3.0118  -2.9260  -2.7628  -2.6888  -2.5738  -2.5062  -2.4459
    -2.3524  -2.3393  -2.3040  -2.2184  -2.1421  -2.0053  -1.9149  -1.9008
    -1.6803  -1.6227  -1.4707  -1.3551  -1.1869  -1.1442  -1.1181  -1.0043
    -0.9950  -0.1323   1.4056   2.0951   2.7342   3.3652   4.1128   4.7347
     5.6049   5.9526

          k = 0.1250 0.2652 0.0000 ( 15153 PWs)   bands (ev):

   -45.3165  -3.9939  -3.9603  -3.8282  -3.5722  -3.5570  -3.4862  -3.2837
    -3.0771  -2.9130  -2.8534  -2.7512  -2.6290  -2.5697  -2.5451  -2.4681
    -2.4037  -2.3587  -2.3022  -2.0855  -2.0757  -2.0501  -1.9282  -1.7568
    -1.6808  -1.5675  -1.4902  -1.4280  -1.2500  -1.2023  -1.0898  -1.0485
    -0.5959   0.5436   0.5771   1.7038   2.0865   3.0822   3.3252   4.1251
     4.6981   6.2879

          k = 0.1250-0.3536 0.0000 ( 15168 PWs)   bands (ev):

   -45.3166  -3.9942  -3.9134  -3.6161  -3.6101  -3.4776  -3.3834  -3.2654
    -3.0679  -2.8681  -2.7952  -2.7056  -2.6804  -2.5926  -2.5875  -2.5674
    -2.4212  -2.3833  -2.2581  -2.1453  -2.0602  -1.9935  -1.9213  -1.6683
    -1.5694  -1.5312  -1.4759  -1.3883  -1.3478  -1.2234  -1.1433  -0.6520
    -0.6022   0.3077   0.3536   1.7341   1.7493   2.6511   3.4390   4.0409
     4.0910   6.7223

          k = 0.1250-0.2652 0.0000 ( 15153 PWs)   bands (ev):

   -45.3165  -3.9939  -3.9603  -3.8282  -3.5722  -3.5570  -3.4862  -3.2837
    -3.0771  -2.9130  -2.8534  -2.7512  -2.6290  -2.5697  -2.5451  -2.4681
    -2.4037  -2.3587  -2.3022  -2.0855  -2.0757  -2.0501  -1.9282  -1.7568
    -1.6808  -1.5675  -1.4902  -1.4280  -1.2500  -1.2023  -1.0898  -1.0485
    -0.5959   0.5436   0.5771   1.7038   2.0865   3.0822   3.3252   4.1251
     4.6981   6.2879

          k = 0.1250-0.1768 0.0000 ( 15135 PWs)   bands (ev):

   -45.3165  -4.4572  -3.9563  -3.7528  -3.7125  -3.6866  -3.5777  -3.3060
    -3.1094  -3.0118  -2.9260  -2.7628  -2.6888  -2.5738  -2.5062  -2.4459
    -2.3524  -2.3393  -2.3040  -2.2184  -2.1421  -2.0053  -1.9149  -1.9008
    -1.6803  -1.6227  -1.4707  -1.3551  -1.1869  -1.1442  -1.1181  -1.0043
    -0.9950  -0.1323   1.4056   2.0951   2.7342   3.3652   4.1128   4.7347
     5.6049   5.9526

          k = 0.1250-0.0884 0.0000 ( 15111 PWs)   bands (ev):

   -45.3165  -4.8377  -4.0364  -3.8855  -3.7806  -3.6254  -3.5051  -3.3228
    -3.1692  -3.0803  -2.9747  -2.8456  -2.7454  -2.6689  -2.5972  -2.4496
    -2.4408  -2.4128  -2.3079  -2.2391  -2.0774  -1.9900  -1.8088  -1.7455
    -1.6597  -1.5891  -1.4842  -1.4497  -1.2328  -1.1844  -1.1393  -0.9916
    -0.8887  -0.5085   1.0590   2.2936   3.8545   3.9117   5.1276   5.3179
     6.0123   6.1638

          k = 0.2500-0.0000 0.0000 ( 15101 PWs)   bands (ev):

   -45.3126  -4.2384  -3.8827  -3.6882  -3.6722  -3.6405  -3.5541  -3.4127
    -3.2426  -3.1600  -3.0925  -2.9581  -2.8426  -2.6763  -2.5978  -2.4676
    -2.3787  -2.1628  -1.9931  -1.9876  -1.8447  -1.7841  -1.7112  -1.6897
    -1.5878  -1.4745  -1.3898  -1.3635  -1.2865  -1.2104  -1.1657  -0.8510
    -0.8073  -0.0741   1.5899   2.9676   4.5707   5.9510   6.6035   6.6753
     6.8277   7.5034

          k = 0.2500 0.0884 0.0000 ( 15103 PWs)   bands (ev):

   -45.3126  -4.1659  -3.8323  -3.6746  -3.6588  -3.5480  -3.4579  -3.3941
    -3.2247  -3.0997  -3.0833  -2.9204  -2.8121  -2.6671  -2.5351  -2.4873
    -2.3825  -2.2504  -2.1711  -2.0026  -1.9123  -1.8159  -1.7482  -1.6901
    -1.6118  -1.5294  -1.4458  -1.3546  -1.2815  -1.1129  -1.0730  -0.9097
    -0.8660   0.1705   1.7576   3.1197   4.6893   5.2824   6.0557   6.2288
     6.8274   6.9666

          k = 0.2500 0.1768 0.0000 ( 15121 PWs)   bands (ev):

   -45.3127  -3.9919  -3.7336  -3.6193  -3.5586  -3.3526  -3.3138  -3.2381
    -3.1243  -3.0535  -2.9854  -2.8755  -2.7566  -2.6599  -2.5897  -2.4460
    -2.4264  -2.3531  -2.2369  -2.1306  -1.9382  -1.9051  -1.8411  -1.8264
    -1.7139  -1.6624  -1.4855  -1.4351  -1.2588  -1.1314  -1.0092  -1.0028
    -0.5528   0.7634   2.2131   3.2464   3.6915   4.2969   5.1806   5.5439
     6.5022   6.7366

          k = 0.2500 0.2652 0.0000 ( 15099 PWs)   bands (ev):

   -45.3126  -3.8097  -3.6193  -3.5464  -3.4985  -3.1773  -3.1317  -3.0651
    -3.0394  -2.9483  -2.9181  -2.8818  -2.7292  -2.6269  -2.5824  -2.5128
    -2.4709  -2.3411  -2.2628  -2.1887  -2.0267  -1.9872  -1.9613  -1.8848
    -1.8423  -1.6794  -1.6214  -1.5297  -1.2382  -1.1803  -1.1145  -0.8071
     0.2133   1.4809   1.6552   2.7386   2.9548   3.9700   4.4115   5.1757
     5.6523   7.0443

          k = 0.2500-0.3536 0.0000 ( 15096 PWs)   bands (ev):

   -45.3126  -3.7108  -3.5767  -3.5431  -3.4247  -3.1863  -3.1159  -3.0068
    -2.9888  -2.9246  -2.9164  -2.8025  -2.6496  -2.5650  -2.5295  -2.5246
    -2.4416  -2.4015  -2.2431  -2.2113  -2.1391  -2.0726  -1.9932  -1.9389
    -1.9193  -1.6882  -1.6832  -1.4023  -1.3904  -1.2853  -1.1636   0.1109
     0.2293   1.1702   1.3630   2.5500   2.8758   3.8298   4.1936   5.0482
     5.3016   7.5453

          k = 0.2500-0.2652 0.0000 ( 15099 PWs)   bands (ev):

   -45.3126  -3.8097  -3.6193  -3.5464  -3.4985  -3.1773  -3.1317  -3.0651
    -3.0394  -2.9483  -2.9181  -2.8818  -2.7292  -2.6269  -2.5824  -2.5128
    -2.4709  -2.3411  -2.2628  -2.1887  -2.0267  -1.9872  -1.9613  -1.8848
    -1.8423  -1.6794  -1.6214  -1.5297  -1.2382  -1.1803  -1.1145  -0.8071
     0.2133   1.4809   1.6552   2.7386   2.9548   3.9700   4.4115   5.1757
     5.6523   7.0443

          k = 0.2500-0.1768 0.0000 ( 15121 PWs)   bands (ev):

   -45.3127  -3.9919  -3.7336  -3.6193  -3.5586  -3.3526  -3.3138  -3.2381
    -3.1243  -3.0535  -2.9854  -2.8755  -2.7566  -2.6599  -2.5897  -2.4460
    -2.4264  -2.3531  -2.2369  -2.1306  -1.9382  -1.9051  -1.8411  -1.8264
    -1.7139  -1.6624  -1.4855  -1.4351  -1.2588  -1.1314  -1.0092  -1.0028
    -0.5528   0.7634   2.2131   3.2464   3.6915   4.2969   5.1806   5.5439
     6.5022   6.7366

          k = 0.2500-0.0884 0.0000 ( 15103 PWs)   bands (ev):

   -45.3126  -4.1659  -3.8323  -3.6746  -3.6588  -3.5480  -3.4579  -3.3941
    -3.2247  -3.0997  -3.0833  -2.9204  -2.8121  -2.6671  -2.5351  -2.4873
    -2.3825  -2.2504  -2.1711  -2.0026  -1.9123  -1.8159  -1.7482  -1.6901
    -1.6118  -1.5294  -1.4458  -1.3546  -1.2815  -1.1129  -1.0730  -0.9097
    -0.8660   0.1705   1.7576   3.1197   4.6893   5.2824   6.0557   6.2288
     6.8274   6.9666

          k = 0.3750-0.0000 0.0000 ( 15069 PWs)   bands (ev):

   -45.3088  -4.1162  -3.9687  -3.9492  -3.8763  -3.7226  -3.5092  -3.5068
    -3.4283  -3.2016  -2.9811  -2.9660  -2.7557  -2.7179  -2.6923  -2.3263
    -2.1648  -1.8672  -1.8666  -1.8073  -1.5944  -1.5849  -1.3965  -1.2978
    -1.2437  -1.2089  -1.1396  -1.0862  -1.0711  -0.8808  -0.7910  -0.4434
    -0.1066   1.1680   2.5622   4.0390   4.4127   5.0083   5.4722   6.6451
     7.4584   8.1343

          k = 0.3750 0.0884 0.0000 ( 15052 PWs)   bands (ev):

   -45.3087  -4.0516  -3.9264  -3.8864  -3.8320  -3.7340  -3.5284  -3.4456
    -3.4001  -3.2467  -3.0568  -2.8513  -2.7348  -2.6488  -2.5799  -2.2710
    -2.1562  -2.0161  -1.8976  -1.8184  -1.7531  -1.5327  -1.4632  -1.4491
    -1.3105  -1.2082  -1.1501  -1.0757  -1.0634  -0.9385  -0.8817  -0.4485
     0.1066   1.4383   2.7655   4.2319   4.5165   5.1895   5.5610   6.7953
     7.1415   7.4683

          k = 0.3750 0.1768 0.0000 ( 15049 PWs)   bands (ev):

   -45.3087  -3.9160  -3.8822  -3.7674  -3.7275  -3.6150  -3.5539  -3.3347
    -3.3147  -3.1568  -2.9951  -2.8243  -2.6824  -2.5539  -2.4562  -2.3745
    -2.2444  -2.1013  -2.0133  -1.9240  -1.9005  -1.6979  -1.6112  -1.4997
    -1.3345  -1.2863  -1.1935  -1.1609  -1.0680  -1.0029  -0.9749  -0.3763
     0.6813   2.0383   3.2932   4.1466   4.8677   5.3007   5.6227   6.0130
     6.5591   6.9980

          k = 0.3750 0.2652 0.0000 ( 15057 PWs)   bands (ev):

   -45.3087  -3.9696  -3.8106  -3.6610  -3.4946  -3.4846  -3.3190  -3.2355
    -3.1153  -3.0023  -2.9211  -2.8100  -2.7581  -2.6214  -2.5280  -2.4452
    -2.4225  -2.3498  -2.2052  -2.0276  -1.8992  -1.6876  -1.6157  -1.5719
    -1.4683  -1.3323  -1.2866  -1.1607  -1.1100  -1.0657  -1.0208   0.1829
     1.4719   2.6615   2.8385   3.9310   4.1958   5.2298   5.6090   6.2462
     6.7294   6.9412

          k = 0.3750-0.3536 0.0000 ( 15056 PWs)   bands (ev):

   -45.3087  -3.9674  -3.8930  -3.4645  -3.3928  -3.3053  -3.2537  -3.1236
    -3.1024  -2.9053  -2.8960  -2.8651  -2.8129  -2.7109  -2.6655  -2.6066
    -2.4477  -2.3083  -2.2536  -2.0700  -1.8911  -1.7639  -1.6241  -1.6123
    -1.4085  -1.3353  -1.2727  -1.2520  -1.1665  -1.1263  -1.0316   1.1857
     1.3763   2.3444   2.7505   3.5324   4.3568   5.0712   5.4093   6.6562
     6.9929   7.1934

          k = 0.3750-0.2652 0.0000 ( 15057 PWs)   bands (ev):

   -45.3087  -3.9696  -3.8106  -3.6610  -3.4946  -3.4846  -3.3190  -3.2355
    -3.1153  -3.0023  -2.9211  -2.8100  -2.7581  -2.6214  -2.5280  -2.4452
    -2.4225  -2.3498  -2.2052  -2.0276  -1.8992  -1.6876  -1.6157  -1.5719
    -1.4683  -1.3323  -1.2866  -1.1607  -1.1100  -1.0657  -1.0208   0.1829
     1.4719   2.6615   2.8385   3.9310   4.1958   5.2298   5.6090   6.2462
     6.7294   6.9411

          k = 0.3750-0.1768 0.0000 ( 15049 PWs)   bands (ev):

   -45.3087  -3.9160  -3.8822  -3.7674  -3.7275  -3.6150  -3.5539  -3.3347
    -3.3147  -3.1568  -2.9951  -2.8243  -2.6824  -2.5539  -2.4562  -2.3745
    -2.2444  -2.1013  -2.0133  -1.9240  -1.9005  -1.6979  -1.6112  -1.4997
    -1.3345  -1.2863  -1.1935  -1.1609  -1.0680  -1.0029  -0.9749  -0.3763
     0.6813   2.0383   3.2932   4.1466   4.8677   5.3007   5.6227   6.0130
     6.5591   6.9980

          k = 0.3750-0.0884 0.0000 ( 15052 PWs)   bands (ev):

   -45.3087  -4.0516  -3.9264  -3.8864  -3.8320  -3.7340  -3.5284  -3.4456
    -3.4001  -3.2467  -3.0568  -2.8513  -2.7348  -2.6488  -2.5799  -2.2710
    -2.1562  -2.0161  -1.8976  -1.8184  -1.7531  -1.5327  -1.4632  -1.4491
    -1.3105  -1.2082  -1.1501  -1.0757  -1.0634  -0.9385  -0.8817  -0.4485
     0.1066   1.4383   2.7655   4.2319   4.5165   5.1895   5.5610   6.7953
     7.1415   7.4683

          k =-0.5000 0.0000 0.0000 ( 14992 PWs)   bands (ev):

   -45.3071  -4.2288  -4.0864  -4.0645  -3.9977  -3.6706  -3.5967  -3.5676
    -3.5152  -3.1169  -3.0906  -2.8441  -2.8081  -2.7576  -2.7095  -2.1722
    -2.0775  -1.8639  -1.8060  -1.7427  -1.5151  -1.3271  -1.3084  -1.2137
    -1.1982  -1.1196  -1.0704  -0.9959  -0.8658  -0.8368  -0.8203   1.6272
     1.6369   2.2076   2.2629   2.8512   3.2129   3.6171   5.8477   6.2241
     7.1141   8.9166

          k =-0.5000 0.0884 0.0000 ( 14998 PWs)   bands (ev):

   -45.3071  -4.1580  -4.0316  -3.9957  -3.9442  -3.6997  -3.6788  -3.5281
    -3.4122  -3.2846  -3.1048  -2.8709  -2.7192  -2.6430  -2.6046  -2.1425
    -2.0009  -1.9194  -1.8395  -1.7686  -1.6703  -1.4344  -1.3291  -1.2481
    -1.2229  -1.1807  -1.0829  -0.9987  -0.9487  -0.9102  -0.8011   1.6909
     1.6968   2.3616   2.4401   3.0024   3.5282   3.9219   5.9316   6.3649
     7.2377   8.8458

          k =-0.5000 0.1768 0.0000 ( 15026 PWs)   bands (ev):

   -45.3071  -3.9707  -3.9308  -3.8562  -3.8393  -3.7482  -3.7357  -3.4308
    -3.3295  -3.2209  -3.0795  -2.8567  -2.6974  -2.5284  -2.4738  -2.2759
    -2.0695  -1.9964  -1.8827  -1.8802  -1.8177  -1.5484  -1.4902  -1.4099
    -1.3408  -1.2850  -1.1247  -1.0434  -0.8857  -0.8812  -0.8115   1.8490
     1.8971   2.7329   2.9109   3.4134   4.2960   4.6968   6.1454   6.7554
     7.4476   7.5903

          k =-0.5000 0.2652 0.0000 ( 15032 PWs)   bands (ev):

   -45.3070  -4.0310  -3.9612  -3.7344  -3.6469  -3.5158  -3.4931  -3.3743
    -3.1566  -3.0343  -3.0008  -2.8285  -2.7981  -2.5646  -2.5083  -2.4566
    -2.3731  -2.2144  -2.0877  -2.0688  -1.8857  -1.6155  -1.4793  -1.4759
    -1.3786  -1.2118  -1.0206  -1.0126  -0.8896  -0.8847  -0.8240   2.0778
     2.1936   3.1723   3.5276   3.9067   5.2471   5.6210   6.1602   6.2325
     6.3340   6.8179

          k =-0.5000-0.3536 0.0000 ( 15032 PWs)   bands (ev):

   -45.3070  -4.0783  -4.0170  -3.5622  -3.5000  -3.4757  -3.3637  -3.1804
    -3.0836  -3.0292  -2.8808  -2.8480  -2.7769  -2.7251  -2.7127  -2.6917
    -2.4777  -2.1994  -2.1707  -2.0539  -1.9189  -1.7502  -1.5770  -1.3353
    -1.3012  -1.2812  -0.9602  -0.9522  -0.9005  -0.8999  -0.8179   2.2119
     2.3796   3.4006   3.9090   4.1387   5.6556   5.6668   6.0124   6.1615
     6.2761   6.2939

     the Fermi energy is     1.9646 ev

!    total energy              =    -520.54743153 Ry
     estimated scf accuracy    <       0.00000002 Ry
     smearing contrib. (-TS)   =       0.00003386 Ry
     internal energy E=F+TS    =    -520.54746539 Ry

     The total energy is F=E-TS. E is the sum of the following terms:
     one-electron contribution =   -5297.71121167 Ry
[...]

          k = 0.1250-0.1768 0.0000 ( 15135 PWs)   bands (ev):

   -45.4253  -4.5023  -3.9794  -3.7791  -3.7697  -3.7348  -3.5603  -3.3549
    -3.1223  -3.0141  -2.9882  -2.7891  -2.7167  -2.5627  -2.5318  -2.4742
    -2.3779  -2.3551  -2.3220  -2.2291  -2.1524  -2.0371  -1.9625  -1.9467
    -1.6963  -1.6369  -1.4862  -1.3472  -1.1991  -1.1692  -1.1244  -1.0149
    -1.0084  -0.1490   1.3854   2.0702   2.6759   3.3716   4.0797   4.7160
     5.5617   5.9056

          k = 0.1250-0.0884 0.0000 ( 15111 PWs)   bands (ev):

   -45.4253  -4.8852  -4.0599  -3.9237  -3.8137  -3.6354  -3.5633  -3.3462
    -3.1911  -3.0998  -2.9790  -2.8949  -2.7605  -2.6996  -2.6089  -2.4784
    -2.4649  -2.4517  -2.2953  -2.2232  -2.0977  -2.0435  -1.8560  -1.7693
    -1.6744  -1.6092  -1.4957  -1.4685  -1.2568  -1.1938  -1.1474  -1.0164
    -0.8977  -0.5112   1.0412   2.2329   3.8473   3.8875   5.1336   5.3311
     5.9931   6.1790

          k = 0.2500-0.0000 0.0000 ( 15101 PWs)   bands (ev):

   -45.4215  -4.2775  -3.8994  -3.7514  -3.7301  -3.6518  -3.6275  -3.4459
    -3.2583  -3.1396  -3.1155  -3.0281  -2.8602  -2.7146  -2.5594  -2.5246
    -2.3885  -2.2106  -2.0051  -1.9900  -1.8668  -1.8027  -1.7225  -1.7099
    -1.6164  -1.4771  -1.4028  -1.3489  -1.2949  -1.2254  -1.2007  -0.8699
    -0.8137  -0.0725   1.5739   2.9152   4.5536   5.9565   6.5995   6.6704
     6.8413   7.5102

          k = 0.2500 0.0884 0.0000 ( 15103 PWs)   bands (ev):

   -45.4215  -4.2046  -3.8496  -3.7411  -3.7076  -3.5624  -3.5272  -3.4267
    -3.2466  -3.1138  -3.0738  -2.9692  -2.8397  -2.6882  -2.5486  -2.5021
    -2.3837  -2.2791  -2.2090  -2.0382  -1.9331  -1.8443  -1.7742  -1.7108
    -1.6186  -1.5183  -1.4530  -1.3602  -1.2989  -1.1157  -1.0847  -0.9246
    -0.8791   0.1609   1.7393   3.0691   4.6748   5.2685   6.0549   6.2432
     6.8169   6.9754

          k = 0.2500 0.1768 0.0000 ( 15121 PWs)   bands (ev):

   -45.4215  -4.0290  -3.7514  -3.6885  -3.6040  -3.3543  -3.3440  -3.3009
    -3.1555  -3.0777  -2.9791  -2.8982  -2.7933  -2.6430  -2.6184  -2.4619
    -2.4360  -2.3670  -2.2891  -2.2027  -1.9703  -1.9198  -1.8658  -1.8375
    -1.7438  -1.6548  -1.4794  -1.4466  -1.2710  -1.1441  -1.0292  -0.9960
    -0.5624   0.7443   2.1915   3.2190   3.6508   4.3111   5.1511   5.5118
     6.4925   6.6721

          k = 0.2500 0.2652 0.0000 ( 15099 PWs)   bands (ev):

   -45.4215  -3.8393  -3.6338  -3.5974  -3.5703  -3.1812  -3.1412  -3.0755
    -3.0665  -3.0048  -2.9409  -2.8970  -2.7769  -2.6484  -2.5823  -2.5298
    -2.4516  -2.3778  -2.3052  -2.2407  -2.0566  -2.0171  -1.9734  -1.9277
    -1.8480  -1.6972  -1.6242  -1.5423  -1.2555  -1.2049  -1.1033  -0.8190
     0.2074   1.4575   1.6402   2.7299   2.9445   3.9190   4.3847   5.1472
     5.5744   7.0277

          k = 0.2500-0.3536 0.0000 ( 15096 PWs)   bands (ev):

   -45.4215  -3.7147  -3.6524  -3.5508  -3.5013  -3.1836  -3.1588  -3.0229
    -3.0129  -2.9254  -2.9018  -2.8406  -2.7304  -2.5890  -2.5581  -2.5148
    -2.4812  -2.3933  -2.2765  -2.2622  -2.1409  -2.0781  -1.9933  -1.9913
    -1.9737  -1.7030  -1.6983  -1.4292  -1.3969  -1.3010  -1.1585   0.1046
     0.2029   1.1640   1.3582   2.5243   2.8780   3.7900   4.1429   4.9677
     5.2789   7.4553

          k = 0.2500-0.2652 0.0000 ( 15099 PWs)   bands (ev):

   -45.4215  -3.8393  -3.6338  -3.5974  -3.5703  -3.1812  -3.1412  -3.0755
    -3.0665  -3.0048  -2.9409  -2.8970  -2.7769  -2.6484  -2.5823  -2.5298
    -2.4516  -2.3778  -2.3052  -2.2407  -2.0566  -2.0171  -1.9734  -1.9277
    -1.8480  -1.6972  -1.6242  -1.5423  -1.2555  -1.2049  -1.1033  -0.8190
     0.2074   1.4575   1.6402   2.7299   2.9445   3.9190   4.3847   5.1472
     5.5744   7.0277

          k = 0.2500-0.1768 0.0000 ( 15121 PWs)   bands (ev):

   -45.4215  -4.0290  -3.7514  -3.6885  -3.6040  -3.3543  -3.3440  -3.3009
    -3.1555  -3.0777  -2.9791  -2.8982  -2.7933  -2.6430  -2.6184  -2.4619
    -2.4360  -2.3670  -2.2891  -2.2027  -1.9703  -1.9198  -1.8658  -1.8375
    -1.7438  -1.6548  -1.4794  -1.4466  -1.2710  -1.1441  -1.0292  -0.9960
    -0.5624   0.7443   2.1915   3.2190   3.6508   4.3111   5.1511   5.5118
     6.4925   6.6721

          k = 0.2500-0.0884 0.0000 ( 15103 PWs)   bands (ev):

   -45.4215  -4.2046  -3.8496  -3.7411  -3.7076  -3.5624  -3.5272  -3.4267
    -3.2466  -3.1138  -3.0738  -2.9692  -2.8397  -2.6882  -2.5486  -2.5021
    -2.3837  -2.2791  -2.2090  -2.0382  -1.9331  -1.8443  -1.7742  -1.7108
    -1.6186  -1.5183  -1.4530  -1.3602  -1.2989  -1.1157  -1.0847  -0.9246
    -0.8791   0.1609   1.7393   3.0691   4.6748   5.2685   6.0549   6.2432
     6.8169   6.9754

          k = 0.3750-0.0000 0.0000 ( 15069 PWs)   bands (ev):

   -45.4177  -4.1185  -4.0425  -3.9681  -3.9452  -3.7412  -3.5656  -3.5253
    -3.4545  -3.2199  -2.9949  -2.9672  -2.8349  -2.8161  -2.7301  -2.3097
    -2.1932  -1.8866  -1.8540  -1.7906  -1.5957  -1.5896  -1.4205  -1.3085
    -1.2388  -1.2377  -1.1365  -1.0966  -1.0859  -0.9105  -0.7990  -0.4586
    -0.1119   1.1590   2.5420   4.0111   4.3852   5.0038   5.4534   6.6562
     7.4625   8.0593

          k = 0.3750 0.0884 0.0000 ( 15052 PWs)   bands (ev):

   -45.4177  -4.0533  -3.9897  -3.9076  -3.8985  -3.7732  -3.5369  -3.4915
    -3.4504  -3.2456  -3.0840  -2.8752  -2.7608  -2.7085  -2.6498  -2.2703
    -2.1817  -2.0289  -1.8976  -1.8199  -1.7506  -1.5283  -1.4771  -1.4665
    -1.3382  -1.2268  -1.1676  -1.0845  -1.0665  -0.9501  -0.8919  -0.4649
     0.1036   1.4259   2.7436   4.2085   4.4853   5.1856   5.5482   6.8036
     7.1299   7.4530

          k = 0.3750 0.1768 0.0000 ( 15049 PWs)   bands (ev):

   -45.4176  -3.9466  -3.8850  -3.8409  -3.7458  -3.6559  -3.6256  -3.3430
    -3.3085  -3.1980  -3.0349  -2.8157  -2.7159  -2.5600  -2.5245  -2.3931
    -2.2853  -2.1444  -2.0425  -1.9088  -1.9018  -1.6915  -1.6269  -1.5410
    -1.3546  -1.2912  -1.2011  -1.1809  -1.0818  -1.0044  -0.9959  -0.3934
     0.6803   2.0236   3.2702   4.1250   4.8313   5.3086   5.6337   5.9816
     6.5283   6.9638

          k = 0.3750 0.2652 0.0000 ( 15057 PWs)   bands (ev):

   -45.4176  -4.0025  -3.8607  -3.6588  -3.5708  -3.4917  -3.3602  -3.2263
    -3.1201  -3.0579  -2.9413  -2.7848  -2.7784  -2.6394  -2.5788  -2.4942
    -2.4538  -2.3931  -2.2493  -2.0292  -1.9205  -1.6903  -1.6188  -1.5920
    -1.4965  -1.3646  -1.2860  -1.1871  -1.1318  -1.0842  -1.0291   0.1642
     1.4743   2.6453   2.8194   3.9139   4.2015   5.1804   5.5898   6.2222
     6.6960   6.9174

          k = 0.3750-0.3536 0.0000 ( 15056 PWs)   bands (ev):

   -45.4176  -3.9866  -3.9570  -3.4516  -3.4154  -3.3176  -3.3058  -3.1617
    -3.1196  -2.9146  -2.9083  -2.8728  -2.8169  -2.7229  -2.7136  -2.6423
    -2.5340  -2.3323  -2.2894  -2.0748  -1.9249  -1.7640  -1.6723  -1.5860
    -1.4363  -1.3517  -1.3020  -1.2772  -1.1861  -1.1526  -1.0365   1.1866
     1.3380   2.3483   2.7451   3.5213   4.3635   5.0150   5.3595   6.5981
     6.9695   7.1989

          k = 0.3750-0.2652 0.0000 ( 15057 PWs)   bands (ev):

   -45.4176  -4.0025  -3.8607  -3.6588  -3.5708  -3.4917  -3.3602  -3.2263
    -3.1201  -3.0579  -2.9413  -2.7848  -2.7784  -2.6394  -2.5788  -2.4942
    -2.4538  -2.3931  -2.2493  -2.0292  -1.9205  -1.6903  -1.6188  -1.5920
    -1.4965  -1.3646  -1.2860  -1.1871  -1.1318  -1.0842  -1.0291   0.1642
     1.4743   2.6453   2.8194   3.9139   4.2015   5.1804   5.5898   6.2222
     6.6960   6.9174

          k = 0.3750-0.1768 0.0000 ( 15049 PWs)   bands (ev):

   -45.4176  -3.9466  -3.8850  -3.8409  -3.7458  -3.6559  -3.6256  -3.3430
    -3.3085  -3.1980  -3.0349  -2.8157  -2.7159  -2.5600  -2.5245  -2.3931
    -2.2853  -2.1444  -2.0425  -1.9088  -1.9018  -1.6915  -1.6269  -1.5410
    -1.3546  -1.2912  -1.2011  -1.1809  -1.0818  -1.0044  -0.9959  -0.3934
     0.6803   2.0236   3.2702   4.1250   4.8313   5.3086   5.6337   5.9816
     6.5283   6.9638

          k = 0.3750-0.0884 0.0000 ( 15052 PWs)   bands (ev):

   -45.4177  -4.0533  -3.9897  -3.9076  -3.8985  -3.7732  -3.5369  -3.4915
    -3.4504  -3.2456  -3.0840  -2.8752  -2.7608  -2.7085  -2.6498  -2.2703
    -2.1817  -2.0289  -1.8976  -1.8199  -1.7506  -1.5283  -1.4771  -1.4665
    -1.3382  -1.2268  -1.1676  -1.0845  -1.0665  -0.9501  -0.8919  -0.4649
     0.1036   1.4259   2.7436   4.2085   4.4853   5.1856   5.5482   6.8036
     7.1299   7.4530

          k =-0.5000 0.0000 0.0000 ( 14992 PWs)   bands (ev):

   -45.4160  -4.2296  -4.1654  -4.0856  -4.0648  -3.6724  -3.6100  -3.6012
    -3.5636  -3.1149  -3.0692  -2.9594  -2.9232  -2.7706  -2.7649  -2.1647
    -2.0829  -1.8441  -1.8342  -1.7165  -1.5209  -1.3391  -1.3194  -1.2180
    -1.1926  -1.1285  -1.0656  -1.0239  -0.8898  -0.8529  -0.8432   1.6087
     1.6170   2.2236   2.2534   2.8233   3.1895   3.6107   5.7916   6.2682
     6.9821   8.7623

          k =-0.5000 0.0884 0.0000 ( 14998 PWs)   bands (ev):

   -45.4160  -4.1561  -4.0928  -4.0323  -4.0141  -3.7122  -3.7103  -3.5428
    -3.4653  -3.2744  -3.1496  -2.8998  -2.8190  -2.6602  -2.6552  -2.1340
    -2.0179  -1.9006  -1.8792  -1.7502  -1.6832  -1.4348  -1.3254  -1.2671
    -1.2208  -1.2165  -1.0792  -1.0210  -0.9701  -0.9182  -0.8230   1.6728
     1.6764   2.3797   2.4312   2.9727   3.5019   3.9183   5.8755   6.4077
     7.1079   8.7063

          k =-0.5000 0.1768 0.0000 ( 15026 PWs)   bands (ev):

   -45.4160  -3.9647  -3.9522  -3.9072  -3.8844  -3.8088  -3.8016  -3.3962
    -3.3216  -3.2875  -3.1361  -2.8436  -2.7616  -2.5384  -2.5323  -2.2569
    -2.1152  -2.0061  -1.9291  -1.8736  -1.8443  -1.5473  -1.5059  -1.4237
    -1.3400  -1.3034  -1.1493  -1.0455  -0.9048  -0.8996  -0.8301   1.8344
     1.8708   2.7553   2.9026   3.3840   4.2650   4.6958   6.0917   6.7920
     7.3936   7.5554

          k =-0.5000 0.2652 0.0000 ( 15032 PWs)   bands (ev):

   -45.4160  -4.0508  -4.0254  -3.7198  -3.6661  -3.5820  -3.5681  -3.3288
    -3.1440  -3.1142  -3.0270  -2.8209  -2.8113  -2.5615  -2.5421  -2.5134
    -2.4318  -2.2249  -2.1274  -2.0779  -1.9269  -1.6204  -1.5020  -1.4833
    -1.4093  -1.1948  -1.0438  -1.0412  -0.9119  -0.9046  -0.8381   2.0667
     2.1562   3.2023   3.5206   3.8871   5.2112   5.6197   6.1333   6.2216
     6.3010   6.8135

          k =-0.5000-0.3536 0.0000 ( 15032 PWs)   bands (ev):

   -45.4160  -4.1010  -4.0788  -3.5369  -3.5157  -3.4936  -3.4376  -3.1832
    -3.0756  -3.0489  -2.8941  -2.8753  -2.8484  -2.7416  -2.7324  -2.6917
    -2.5665  -2.1917  -2.1884  -2.0980  -1.9600  -1.7564  -1.6251  -1.3626
    -1.3333  -1.2381  -0.9849  -0.9775  -0.9241  -0.9209  -0.8324   2.2028
     2.3322   3.4406   3.9030   4.1308   5.6356   5.6435   6.0030   6.0999
     6.2683   6.2883

     the Fermi energy is     1.9377 ev

!    total energy              =    -520.54935809 Ry
     estimated scf accuracy    <          1.9E-09 Ry
     smearing contrib. (-TS)   =      -0.00012182 Ry
     internal energy E=F+TS    =    -520.54923627 Ry

     The total energy is F=E-TS. E is the sum of the following terms:
     one-electron contribution =   -5315.96175067 Ry
     hartree contribution      =    2704.47477541 Ry
     xc contribution           =    -137.51945547 Ry
     ewald contribution        =    2228.62432470 Ry
     DFT-D3 Dispersion         =      -0.16713024 Ry

     convergence has been achieved in   7 iterations

     negative rho (up, down):  1.386E-05 0.000E+00

     Forces acting on atoms (cartesian axes, Ry/au):

     atom    1 type  2   force =     0.00000013    0.00000004    0.00015133
     atom    2 type  2   force =    -0.00000005    0.00000001   -0.00034134
     atom    3 type  2   force =    -0.00000003   -0.00000002    0.00029307
     atom    4 type  2   force =    -0.00000006   -0.00000007    0.00006921
     atom    5 type  2   force =    -0.00000000   -0.00000004   -0.00080100
     atom    6 type  2   force =    -0.00000001    0.00000002   -0.00037102
     atom    7 type  1   force =     0.00000003    0.00000006    0.00099976
     The non-local contrib.  to forces
     atom    1 type  2   force =     0.00000005    0.00000013    0.01829411
     atom    2 type  2   force =     0.00000012   -0.00000001    0.02913350
     atom    3 type  2   force =     0.00000003   -0.00000005   -0.02461055
     atom    4 type  2   force =    -0.00000006   -0.00000007    0.01596845
     atom    5 type  2   force =     0.00000003    0.00000001   -0.13112000
     atom    6 type  2   force =    -0.00000002    0.00000000    0.00440298
     atom    7 type  1   force =     0.00000000    0.00000015    0.06349883
     The ionic contribution  to forces
     atom    1 type  2   force =     0.00000649    0.00000602   67.82160948
     atom    2 type  2   force =    -0.00000355   -0.00000284  106.54411199
     atom    3 type  2   force =     0.00000001   -0.00000290  -28.65414849
     atom    4 type  2   force =    -0.00000378   -0.00000383   17.38832546
     atom    5 type  2   force =     0.00000005   -0.00000100 -118.26717676
     atom    6 type  2   force =     0.00000024    0.00000098  -79.17531385
     atom    7 type  1   force =     0.00000053    0.00000356   34.34259217
     The local contribution  to forces
     atom    1 type  2   force =    -0.00000635   -0.00000607  -67.83441173
     atom    2 type  2   force =     0.00000341    0.00000283 -106.56972582
     atom    3 type  2   force =    -0.00000006    0.00000289   28.67555372
     atom    4 type  2   force =     0.00000372    0.00000385  -17.40202127
     atom    5 type  2   force =    -0.00000007    0.00000096  118.38580163
     atom    6 type  2   force =    -0.00000022   -0.00000096   79.16393506
     atom    7 type  1   force =    -0.00000049   -0.00000366  -34.40218724
     The core correction contribution to forces
     atom    1 type  2   force =    -0.00000002   -0.00000001   -0.00184398
     atom    2 type  2   force =     0.00000001    0.00000001    0.00004467
     atom    3 type  2   force =     0.00000000    0.00000001    0.00035934
     atom    4 type  2   force =     0.00000001    0.00000001   -0.00009673
     atom    5 type  2   force =    -0.00000000    0.00000000    0.00709054
     atom    6 type  2   force =     0.00000000   -0.00000000    0.00184705
     atom    7 type  1   force =     0.00000000    0.00000000    0.00000000
     The Hubbard contrib.    to forces
     atom    1 type  2   force =     0.00000000    0.00000000    0.00000000
     atom    2 type  2   force =     0.00000000    0.00000000    0.00000000
     atom    3 type  2   force =     0.00000000    0.00000000    0.00000000
     atom    4 type  2   force =     0.00000000    0.00000000    0.00000000
     atom    5 type  2   force =     0.00000000    0.00000000    0.00000000
     atom    6 type  2   force =     0.00000000    0.00000000    0.00000000
     atom    7 type  1   force =     0.00000000    0.00000000    0.00000000
     The SCF correction term to forces
     atom    1 type  2   force =    -0.00000000   -0.00000002    0.00003812
     atom    2 type  2   force =    -0.00000004    0.00000003    0.00003282
     atom    3 type  2   force =    -0.00000001    0.00000002   -0.00001719
     atom    4 type  2   force =     0.00000004   -0.00000004    0.00006966
     atom    5 type  2   force =     0.00000000   -0.00000000   -0.00004581
     atom    6 type  2   force =    -0.00000000   -0.00000001   -0.00003895
     atom    7 type  1   force =     0.00000000    0.00000001    0.00002290

     DFT-D3 dispersion contribution to forces:
     atom    1 type  2   force =    -0.00000002   -0.00000001   -0.00353836
     atom    2 type  2   force =     0.00000001   -0.00000001   -0.00394220
     atom    3 type  2   force =     0.00000000    0.00000001    0.00315254
     atom    4 type  2   force =     0.00000001    0.00000001   -0.00218006
     atom    5 type  2   force =    -0.00000000    0.00000000    0.00464570
     atom    6 type  2   force =    -0.00000000    0.00000000    0.00479299
     atom    7 type  1   force =    -0.00000000   -0.00000000   -0.00293060

     Total force =     0.001417     Total SCF correction =     0.000109


     Computing stress (Cartesian axis) and pressure


     negative rho (up, down):  1.386E-05 0.000E+00
          total   stress  (Ry/bohr**3)                   (kbar)     P=      -10.80
  -0.00006801   0.00000000   0.00000000          -10.00        0.00        0.00
   0.00000000  -0.00011144   0.00000000            0.00      -16.39        0.00
   0.00000000   0.00000000  -0.00004086            0.00        0.00       -6.01

     Energy error            =      8.5E-06 Ry
     Gradient error          =      1.0E-03 Ry/Bohr

     bfgs converged in  14 scf cycles and  13 bfgs steps
     (criteria: energy <  1.0E-04 Ry, force <  1.0E-03 Ry/Bohr)

     End of BFGS Geometry Optimization

     Final energy             =    -520.5493580857 Ry

     File ./Ag_mp-124_110_bridge_2/Ag_mp-124_110_bridge_2.bfgs deleted, as requested
Begin final coordinates

ATOMIC_POSITIONS (angstrom)
Ag            2.1766593389        3.0782660628       15.8055692425
Ag            0.7255511336        1.0260874757       17.1769411856
Ag            2.1766634481        3.0782683835       12.9114983135
Ag            0.7255535723        1.0260894426       14.3094391632
Ag            2.1766633619        3.0782687117       10.0510662126
Ag            0.7255542982        1.0260903839       11.4070174130
Li            2.1766594148        1.0260912469       19.3197942646
End final coordinates



     Writing all to output data dir ./Ag_mp-124_110_bridge_2/Ag_mp-124_110_bridge_2.save/

     init_run     :      3.32s CPU      6.49s WALL (       1 calls)
     electrons    :     59.79s CPU     74.32s WALL (      14 calls)
     update_pot   :      4.90s CPU      5.23s WALL (      13 calls)
     forces       :      5.89s CPU      7.64s WALL (      14 calls)
     force_dftd3  :      1.56s CPU      2.45s WALL (      14 calls)
     stress       :     15.17s CPU     15.82s WALL (      14 calls)
     stres_dftd3  :      0.36s CPU      0.53s WALL (      14 calls)

     Called by init_run:
     wfcinit      :      0.25s CPU      0.45s WALL (       1 calls)
     potinit      :      1.13s CPU      3.08s WALL (       1 calls)
     hinit0       :      1.44s CPU      1.95s WALL (       1 calls)

     Called by electrons:
     c_bands      :     46.85s CPU     49.99s WALL (     113 calls)
     sum_band     :      7.37s CPU      8.04s WALL (     113 calls)
     v_of_rho     :      2.49s CPU     10.56s WALL (     116 calls)
     newd         :      4.85s CPU      8.20s WALL (     116 calls)
     mix_rho      :      0.26s CPU      0.38s WALL (     113 calls)
     energy_dftd3 :      0.02s CPU      0.02s WALL (      14 calls)

     Called by c_bands:
     init_us_2    :      0.40s CPU      0.44s WALL (    2295 calls)
     init_us_2:cp :      0.40s CPU      0.43s WALL (    2295 calls)
     cegterg      :     43.42s CPU     45.29s WALL (    1017 calls)

     Called by *egterg:
     cdiaghg      :      8.52s CPU      8.62s WALL (    3885 calls)
     h_psi        :     27.63s CPU     29.14s WALL (    4110 calls)
     s_psi        :      1.32s CPU      1.34s WALL (    4110 calls)
     g_psi        :      0.12s CPU      0.12s WALL (    3084 calls)

     Called by h_psi:
     h_psi:calbec :      2.26s CPU      2.53s WALL (    4110 calls)
     vloc_psi     :     23.96s CPU     25.15s WALL (    4110 calls)
     add_vuspsi   :      1.31s CPU      1.35s WALL (    4110 calls)

     General routines
     calbec       :      3.95s CPU      4.37s WALL (    5757 calls)
     fft          :      4.92s CPU     17.52s WALL (    1854 calls)
     ffts         :      0.50s CPU      0.54s WALL (     229 calls)
     fftw         :     24.80s CPU     26.01s WALL (  265428 calls)
     interpolate  :      0.71s CPU      1.92s WALL (     116 calls)

     Parallel routines

     PWSCF        :   1m31.51s CPU   1m53.90s WALL


   This run was terminated on:   5:27:16  24Jul2025            

=------------------------------------------------------------------------------=
   JOB DONE.
=------------------------------------------------------------------------------=
