
     Program PWSCF v.7.2 starts on 24Jul2025 at  5:20: 3 

     This program is part of the open-source Quantum ESPRESSO suite
     for quantum simulation of materials; please cite
         "P. Giannozzi et al., J. Phys.:Condens. Matter 21 395502 (2009);
         "P. Giannozzi et al., J. Phys.:Condens. Matter 29 465901 (2017);
         "P. Giannozzi et al., J. Chem. Phys. 152 154105 (2020);
          URL http://www.quantum-espresso.org", 
     in publications or presentations arising from this work. More details at
     http://www.quantum-espresso.org/quote

     Parallel version (MPI & OpenMP), running on     128 processor cores
     Number of MPI processes:               128
     Threads/MPI process:                     1

     MPI processes distributed on     2 nodes
     243988 MiB available memory on the printing compute node when the environment starts

     Reading input from Ag_mp-124_111_ontop_0.in

     Current dimensions of program PWSCF are:
     Max number of different atomic species (ntypx) = 10
     Max number of k-points (npk) =  40000
     Max angular momentum in pseudopotentials (lmaxx) =  4
     Message from routine iosys:
     restart disabled: needed files not found

     K-points division:     npool     =       4
     R & G space division:  proc/nbgrp/npool/nimage =      32
     Subspace diagonalization in iterative solution of the eigenvalue problem:
     a serial algorithm will be used


     Parallelization info
     --------------------
     sticks:   dense  smooth     PW     G-vecs:    dense   smooth      PW
     Min          32      14      4                 9247     2668     476
     Max          33      15      5                 9307     2719     521
     Sum        1039     451    151               296663    86301   15967

     Using Slab Decomposition



     bravais-lattice index     =            0
     lattice parameter (alat)  =       5.4844  a.u.
     unit-cell volume          =    1569.1543 (a.u.)^3
     number of atoms/cell      =            7
     number of atomic types    =            2
     number of electrons       =        69.00
     number of Kohn-Sham states=           42
     kinetic-energy cutoff     =      55.0000  Ry
     charge density cutoff     =     500.0000  Ry
     scf convergence threshold =      1.0E-06
     mixing beta               =       0.3000
     number of iterations used =            8  plain     mixing
     energy convergence thresh.=      1.0E-04
     force convergence thresh. =      1.0E-03
     Exchange-correlation= PBE
                           (   1   4   3   4   0   0   0)
     nstep                     =          500


     celldm(1)=   5.484398  celldm(2)=   0.000000  celldm(3)=   0.000000
     celldm(4)=   0.000000  celldm(5)=   0.000000  celldm(6)=   0.000000

     crystal axes: (cart. coord. in units of alat)
               a(1) = (   0.999045   0.000000   0.043685 )  
               a(2) = (   0.498568   0.865749   0.043685 )  
               a(3) = (   0.000000   0.000000  10.997690 )  

     reciprocal axes: (cart. coord. in units 2 pi/alat)
               b(1) = (  1.000956 -0.576430  0.000000 )  
               b(2) = (  0.000000  1.155069  0.000000 )  
               b(3) = ( -0.003976 -0.002298  0.090928 )  


     PseudoPot. # 1 for Li read from file:
     /home/ecastro/trabajo_final/pseudos/Li.pbe-s-rrkjus_psl.1.0.0.UPF
     MD5 check sum: 9f98d2529904d60b716d33989e9bc179
     Pseudo is Ultrasoft, Zval =  3.0
     Generated using &quot;atomic&quot; code by A. Dal Corso  v.6.3MaX
     Using radial grid of 1017 points,  4 beta functions with: 
                l(1) =   0
                l(2) =   0
                l(3) =   1
                l(4) =   1
     Q(r) pseudized with 0 coefficients 


     PseudoPot. # 2 for Ag read from file:
     /home/ecastro/trabajo_final/pseudos/Ag.pbe-n-rrkjus_psl.1.0.0.UPF
     MD5 check sum: 81cdf87bacf708300839c66ee23ce017
     Pseudo is Ultrasoft + core correction, Zval = 11.0
     Generated using &quot;atomic&quot; code by A. Dal Corso  v.6.2.2
     Using radial grid of 1237 points,  6 beta functions with: 
                l(1) =   0
                l(2) =   0
                l(3) =   1
                l(4) =   1
                l(5) =   2
                l(6) =   2
     Q(r) pseudized with 0 coefficients 


     atomic species   valence    mass     pseudopotential
        Li             3.00     6.94100     Li( 1.00)
        Ag            11.00   107.86820     Ag( 1.00)

     No symmetry found



   Cartesian axes

     site n.     atom                  positions (alat units)
         1           Ag  tau(   1) = (   0.6717609   0.1958243   3.4893255  )
         2           Ag  tau(   2) = (   0.6354667   0.7523774   4.3193443  )
         3           Ag  tau(   3) = (   1.0996503   0.4431812   5.1493632  )
         4           Ag  tau(   4) = (   0.5647885   0.1339850   5.9356968  )
         5           Ag  tau(   5) = (   0.5289793   0.6908197   6.7545940  )
         6           Ag  tau(   6) = (   0.9926572   0.3813309   7.5962214  )
         7           Li  tau(   7) = (   0.9625621   0.3639333   8.2853494  )

     --------------------------------------------
     DFT-D3 Dispersion Correction (no 3-body):
     --------------------------------------------
       Reference C6 values for interpolation: 

         atom   Coordination number   C6
         Li         0.000          2326.89
         Li         0.987           170.64
         Ag         0.000           853.49
         Ag         0.968           537.23

       Values used:

         atom   Coordination number  R0_AB[au]  C6      C8
         Ag         6.506            3.147    537.23  47741.54
         Ag         8.709            3.147    537.23  47741.54
         Ag         8.719            3.147    537.23  47741.54
         Ag         8.815            3.147    537.23  47741.54
         Ag         8.720            3.147    537.23  47741.54
         Ag         8.277            3.147    537.23  47741.54
         Li         6.950            3.303    170.64  12899.87

         Molecular C6 ( Ry / a.u.^6 ) =     22982.53


     number of k points=    34  Methfessel-Paxton smearing, width (Ry)=  0.0300
                       cart. coord. in units 2pi/alat
        k(    1) = (   0.0000000   0.0000000   0.0000000), wk =   0.0312500
        k(    2) = (   0.0000000   0.1443836   0.0000000), wk =   0.0625000
        k(    3) = (   0.0000000   0.2887672   0.0000000), wk =   0.0625000
        k(    4) = (   0.0000000   0.4331508   0.0000000), wk =   0.0625000
        k(    5) = (   0.0000000  -0.5775343   0.0000000), wk =   0.0312500
        k(    6) = (   0.1251194  -0.0720538   0.0000000), wk =   0.0625000
        k(    7) = (   0.1251194   0.0723298   0.0000000), wk =   0.0625000
        k(    8) = (   0.1251194   0.2167134   0.0000000), wk =   0.0625000
        k(    9) = (   0.1251194   0.3610970   0.0000000), wk =   0.0625000
        k(   10) = (   0.1251194  -0.6495881   0.0000000), wk =   0.0625000
        k(   11) = (   0.1251194  -0.5052045   0.0000000), wk =   0.0625000
        k(   12) = (   0.1251194  -0.3608209   0.0000000), wk =   0.0625000
        k(   13) = (   0.1251194  -0.2164373   0.0000000), wk =   0.0625000
        k(   14) = (   0.2502389  -0.1441075   0.0000000), wk =   0.0625000
        k(   15) = (   0.2502389   0.0002761   0.0000000), wk =   0.0625000
        k(   16) = (   0.2502389   0.1446597   0.0000000), wk =   0.0625000
        k(   17) = (   0.2502389   0.2890432   0.0000000), wk =   0.0625000
        k(   18) = (   0.2502389  -0.7216419   0.0000000), wk =   0.0625000
        k(   19) = (   0.2502389  -0.5772583   0.0000000), wk =   0.0625000
        k(   20) = (   0.2502389  -0.4328747   0.0000000), wk =   0.0625000
        k(   21) = (   0.2502389  -0.2884911   0.0000000), wk =   0.0625000
        k(   22) = (   0.3753583  -0.2161613   0.0000000), wk =   0.0625000
        k(   23) = (   0.3753583  -0.0717777   0.0000000), wk =   0.0625000
        k(   24) = (   0.3753583   0.0726059   0.0000000), wk =   0.0625000
        k(   25) = (   0.3753583   0.2169895   0.0000000), wk =   0.0625000
        k(   26) = (   0.3753583  -0.7936956   0.0000000), wk =   0.0625000
        k(   27) = (   0.3753583  -0.6493120   0.0000000), wk =   0.0625000
        k(   28) = (   0.3753583  -0.5049284   0.0000000), wk =   0.0625000
        k(   29) = (   0.3753583  -0.3605449   0.0000000), wk =   0.0625000
        k(   30) = (  -0.5004778   0.2882150   0.0000000), wk =   0.0312500
        k(   31) = (  -0.5004778   0.4325986   0.0000000), wk =   0.0625000
        k(   32) = (  -0.5004778   0.5769822   0.0000000), wk =   0.0625000
        k(   33) = (  -0.5004778   0.7213658   0.0000000), wk =   0.0625000
        k(   34) = (  -0.5004778  -0.2893193   0.0000000), wk =   0.0312500

     Dense  grid:   296663 G-vectors     FFT dimensions: (  40,  40, 432)

     Smooth grid:    86301 G-vectors     FFT dimensions: (  25,  25, 288)

     Estimated max dynamical RAM per process >      19.19 MB

     Estimated total dynamical RAM >       2.19 GB
     Cannot read rho : file not found

     Initial potential from superposition of free atoms

     starting charge      68.9930, renormalised to      69.0000

     negative rho (up, down):  2.925E-05 0.000E+00
     Message from routine qexsd_readschema :
     xml data file ./Ag_mp-124_111_ontop_0/Ag_mp-124_111_ontop_0.save/data-file-schem
     Cannot read wfcs: file not found
     Starting wfcs are   59 randomized atomic wfcs

     total cpu time spent up to now is        7.0 secs

     per-process dynamical memory:   175.0 Mb

     Self-consistent Calculation

     iteration #  1     ecut=    55.00 Ry     beta= 0.30
     Davidson diagonalization with overlap
     c_bands:  1 eigenvalues not converged
     c_bands:  1 eigenvalues not converged
     c_bands:  1 eigenvalues not converged
     c_bands:  1 eigenvalues not converged
     c_bands:  1 eigenvalues not converged
     c_bands:  1 eigenvalues not converged
     c_bands:  1 eigenvalues not converged
     ethr =  1.00E-05,  avg # of iterations = 19.8

     negative rho (up, down):  2.298E-05 0.000E+00

     total cpu time spent up to now is        9.0 secs

     total energy              =    -520.43436849 Ry
     estimated scf accuracy    <       0.40870182 Ry

     iteration #  2     ecut=    55.00 Ry     beta= 0.30
     Davidson diagonalization with overlap
     ethr =  5.92E-04,  avg # of iterations =  7.5

     negative rho (up, down):  2.998E-05 0.000E+00

     total cpu time spent up to now is        9.6 secs

     total energy              =    -519.06694946 Ry
     estimated scf accuracy    <      73.13062039 Ry

     iteration #  3     ecut=    55.00 Ry     beta= 0.30
     Davidson diagonalization with overlap
     ethr =  5.92E-04,  avg # of iterations =  8.3

     negative rho (up, down):  2.849E-05 0.000E+00

     total cpu time spent up to now is       10.2 secs

     total energy              =    -520.55285596 Ry
     estimated scf accuracy    <       0.60407164 Ry

     iteration #  4     ecut=    55.00 Ry     beta= 0.30
     Davidson diagonalization with overlap
     ethr =  5.92E-04,  avg # of iterations =  2.0

     negative rho (up, down):  2.010E-05 0.000E+00

     total cpu time spent up to now is       10.6 secs

     total energy              =    -520.56224749 Ry
     estimated scf accuracy    <       0.64977580 Ry

     iteration #  5     ecut=    55.00 Ry     beta= 0.30
     Davidson diagonalization with overlap
     ethr =  5.92E-04,  avg # of iterations =  1.5

     negative rho (up, down):  1.817E-05 0.000E+00

     total cpu time spent up to now is       10.9 secs

     total energy              =    -520.58037973 Ry
     estimated scf accuracy    <       0.09072455 Ry

     iteration #  6     ecut=    55.00 Ry     beta= 0.30
     Davidson diagonalization with overlap
     ethr =  1.31E-04,  avg # of iterations =  2.4

     negative rho (up, down):  1.165E-05 0.000E+00

     total cpu time spent up to now is       11.3 secs

     total energy              =    -520.58543163 Ry
     estimated scf accuracy    <       0.01160886 Ry

     iteration #  7     ecut=    55.00 Ry     beta= 0.30
     Davidson diagonalization with overlap
     ethr =  1.68E-05,  avg # of iterations =  8.2

     negative rho (up, down):  6.656E-06 0.000E+00

     total cpu time spent up to now is       11.9 secs

     total energy              =    -520.58584235 Ry
     estimated scf accuracy    <       0.00101983 Ry

     iteration #  8     ecut=    55.00 Ry     beta= 0.30
     Davidson diagonalization with overlap
     ethr =  1.48E-06,  avg # of iterations =  6.3

     negative rho (up, down):  6.826E-06 0.000E+00

     total cpu time spent up to now is       12.4 secs

     total energy              =    -520.58587089 Ry
     estimated scf accuracy    <       0.00112261 Ry

     iteration #  9     ecut=    55.00 Ry     beta= 0.30
     Davidson diagonalization with overlap
     ethr =  1.48E-06,  avg # of iterations =  1.5

     negative rho (up, down):  8.081E-06 0.000E+00

     total cpu time spent up to now is       12.8 secs

     total energy              =    -520.58590230 Ry
     estimated scf accuracy    <       0.00059850 Ry

     iteration # 10     ecut=    55.00 Ry     beta= 0.30
     Davidson diagonalization with overlap
     ethr =  8.67E-07,  avg # of iterations =  2.0

     negative rho (up, down):  8.337E-06 0.000E+00

     total cpu time spent up to now is       13.1 secs

     total energy              =    -520.58593938 Ry
     estimated scf accuracy    <       0.00022709 Ry

     iteration # 11     ecut=    55.00 Ry     beta= 0.30
     Davidson diagonalization with overlap
     ethr =  3.29E-07,  avg # of iterations =  1.1

     negative rho (up, down):  7.818E-06 0.000E+00

     total cpu time spent up to now is       13.4 secs

     total energy              =    -520.58594126 Ry
     estimated scf accuracy    <       0.00003119 Ry

     iteration # 12     ecut=    55.00 Ry     beta= 0.30
     Davidson diagonalization with overlap
     ethr =  4.52E-08,  avg # of iterations =  1.6

     negative rho (up, down):  7.355E-06 0.000E+00

     total cpu time spent up to now is       13.8 secs

     End of self-consistent calculation

          k = 0.0000 0.0000 0.0000 ( 10919 PWs)   bands (ev):

   -43.0852  -3.6614  -3.1869  -2.6193  -2.4325  -2.3468  -2.2291  -1.1992
    -0.8786  -0.8786  -0.8661  -0.8379  -0.7995  -0.7994  -0.7929  -0.7928
    -0.7335  -0.7335  -0.6752  -0.6752  -0.5711  -0.5711  -0.1881  -0.0550
    -0.0549   0.1565   0.1566   0.1858   0.1858   0.4159   0.4159   0.6720
     0.6720   0.8879   0.8880   1.0408   2.2120   3.4374   3.9379   7.2112
     7.7858   8.1371

          k = 0.0000 0.1444 0.0000 ( 10876 PWs)   bands (ev):

   -43.0820  -3.2509  -2.7956  -2.2516  -2.1774  -2.0751  -1.9273  -1.2767
    -1.0891  -1.0118  -0.9445  -0.9117  -0.8801  -0.7668  -0.7110  -0.6865
    -0.6378  -0.5921  -0.5910  -0.5374  -0.5345  -0.5044  -0.3719  -0.3453
    -0.1283  -0.0113   0.0580   0.0641   0.2019   0.2249   0.4312   0.4379
     0.6849   0.9055   0.9377   1.9035   2.9081   3.9770   4.7677   7.5410
     8.1252   8.4404

          k = 0.0000 0.2888 0.0000 ( 10871 PWs)   bands (ev):

   -43.0743  -2.3749  -2.1067  -1.9607  -1.8610  -1.7548  -1.6527  -1.5286
    -1.4220  -1.2764  -1.1516  -1.0212  -0.8986  -0.7019  -0.6510  -0.6220
    -0.5308  -0.4415  -0.4411  -0.2746  -0.2401  -0.1329  -0.1327  -0.0324
     0.0269   0.0456   0.1970   0.2105   0.2418   0.3665   0.4872   0.7071
     0.8016   0.9406   1.8547   3.1276   4.0868   5.2761   6.6111   8.4793
     9.1104   9.4384

          k = 0.0000 0.4332 0.0000 ( 10791 PWs)   bands (ev):

   -43.0664  -2.2689  -2.2372  -2.1271  -2.0783  -2.0088  -1.9295  -1.8797
    -1.7235  -1.5370  -1.2108  -0.9822  -0.8193  -0.7596  -0.6886  -0.5526
    -0.3340  -0.2690  -0.1370   0.1488   0.2262   0.4573   0.4767   0.5987
     0.6748   0.6793   0.7529   0.7726   0.8216   0.8733   1.0011   1.4826
     1.8455   2.3310   3.3945   4.6973   5.6899   6.9208   8.4852   8.8257
     9.1794   9.5897

          k = 0.0000-0.5775 0.0000 ( 10736 PWs)   bands (ev):

   -43.0631  -2.4029  -2.3527  -2.2595  -2.2094  -2.1088  -2.0573  -2.0101
    -1.8679  -1.6688  -1.2753  -1.0430  -0.9059  -0.8289  -0.6086  -0.5496
    -0.3010  -0.1343   0.0684   0.1613   0.4649   0.5714   0.6879   0.8397
     0.8695   0.9422   0.9806   0.9834   1.0621   1.0988   1.1469   3.4495
     3.9668   4.5016   4.9318   5.2348   5.4553   6.7107   7.2321   7.7153
     8.2964   8.8381

          k = 0.1251-0.0721 0.0000 ( 10876 PWs)   bands (ev):

   -43.0820  -3.2509  -2.7956  -2.2516  -2.1774  -2.0751  -1.9273  -1.2767
    -1.0891  -1.0118  -0.9445  -0.9117  -0.8801  -0.7668  -0.7110  -0.6865
    -0.6378  -0.5921  -0.5910  -0.5374  -0.5345  -0.5044  -0.3719  -0.3453
    -0.1283  -0.0113   0.0580   0.0641   0.2019   0.2249   0.4312   0.4379
     0.6849   0.9055   0.9377   1.9035   2.9081   3.9770   4.7677   7.5410
     8.1252   8.4404

          k = 0.1251 0.0723 0.0000 ( 10875 PWs)   bands (ev):

   -43.0820  -3.2509  -2.7956  -2.2516  -2.1774  -2.0751  -1.9273  -1.2767
    -1.0891  -1.0118  -0.9445  -0.9117  -0.8801  -0.7668  -0.7110  -0.6865
    -0.6378  -0.5922  -0.5910  -0.5374  -0.5345  -0.5044  -0.3720  -0.3453
    -0.1283  -0.0112   0.0580   0.0640   0.2019   0.2249   0.4312   0.4379
     0.6849   0.9055   0.9377   1.9035   2.9081   3.9770   4.7677   7.5414
     8.1209   8.4490

          k = 0.1251 0.2167 0.0000 ( 10868 PWs)   bands (ev):

   -43.0765  -2.5451  -2.1925  -1.7922  -1.7359  -1.6984  -1.5820  -1.3949
    -1.3070  -1.2703  -1.1834  -1.1362  -1.0531  -0.9101  -0.8581  -0.6974
    -0.6691  -0.5620  -0.5415  -0.4906  -0.4394  -0.2414  -0.2033  -0.1401
    -0.0460   0.0060   0.1487   0.1628   0.3258   0.3452   0.4391   0.5963
     0.7731   0.8273   1.6237   2.7912   3.7433   4.8875   6.0778   8.1810
     8.7782   9.1152

          k = 0.1251 0.3611 0.0000 ( 10820 PWs)   bands (ev):

   -43.0687  -2.0222  -1.9169  -1.8507  -1.7879  -1.7251  -1.6703  -1.5787
    -1.4338  -1.3868  -1.2189  -1.0804  -0.9781  -0.8206  -0.7820  -0.6777
    -0.5772  -0.5398  -0.3803  -0.3203  -0.2268  -0.1010   0.0216   0.0918
     0.1885   0.3961   0.4380   0.6662   0.7142   0.7767   0.9252   1.3475
     1.4792   1.9176   2.9506   4.1987   5.1327   6.4198   8.0197   9.3507
    10.0873  10.4561

          k = 0.1251-0.6496 0.0000 ( 10762 PWs)   bands (ev):

   -43.0632  -2.2158  -2.1378  -2.0657  -1.9816  -1.9219  -1.8514  -1.7841
    -1.6439  -1.5420  -1.2944  -1.0735  -0.9320  -0.7693  -0.7524  -0.5834
    -0.4976  -0.2122  -0.1110  -0.0348   0.2078   0.2848   0.4065   0.4928
     0.5736   0.6380   0.7032   0.7885   0.9146   0.9535   1.0954   3.3735
     3.6697   4.1291   4.9551   5.9418   6.7944   7.1713   7.7507   8.1021
     8.7101   9.1798

          k = 0.1251-0.5052 0.0000 ( 10760 PWs)   bands (ev):

   -43.0632  -2.2158  -2.1378  -2.0657  -1.9816  -1.9219  -1.8514  -1.7841
    -1.6440  -1.5420  -1.2944  -1.0735  -0.9320  -0.7693  -0.7524  -0.5834
    -0.4976  -0.2122  -0.1110  -0.0347   0.2078   0.2849   0.4065   0.4928
     0.5736   0.6380   0.7032   0.7885   0.9146   0.9535   1.0955   3.3735
     3.6697   4.1291   4.9551   5.9418   6.7944   7.1713   7.7507   8.1021
     8.7101   9.1799

          k = 0.1251-0.3608 0.0000 ( 10818 PWs)   bands (ev):

   -43.0687  -2.0222  -1.9169  -1.8507  -1.7879  -1.7251  -1.6704  -1.5787
    -1.4338  -1.3868  -1.2189  -1.0804  -0.9781  -0.8206  -0.7819  -0.6776
    -0.5772  -0.5398  -0.3803  -0.3203  -0.2268  -0.1010   0.0216   0.0918
     0.1885   0.3961   0.4380   0.6662   0.7142   0.7767   0.9252   1.3475
     1.4792   1.9176   2.9505   4.1987   5.1327   6.4198   8.0198   9.3497
    10.1028  10.4227

          k = 0.1251-0.2164 0.0000 ( 10863 PWs)   bands (ev):

   -43.0765  -2.5451  -2.1925  -1.7922  -1.7359  -1.6984  -1.5820  -1.3949
    -1.3069  -1.2703  -1.1834  -1.1362  -1.0531  -0.9101  -0.8581  -0.6973
    -0.6690  -0.5620  -0.5415  -0.4906  -0.4394  -0.2413  -0.2033  -0.1401
    -0.0460   0.0060   0.1487   0.1629   0.3258   0.3452   0.4390   0.5963
     0.7731   0.8273   1.6237   2.7912   3.7433   4.8875   6.0778   8.1797
     8.7948   9.0834

          k = 0.2502-0.1441 0.0000 ( 10871 PWs)   bands (ev):

   -43.0743  -2.3749  -2.1067  -1.9607  -1.8610  -1.7548  -1.6527  -1.5286
    -1.4220  -1.2764  -1.1516  -1.0212  -0.8986  -0.7019  -0.6510  -0.6220
    -0.5308  -0.4415  -0.4411  -0.2746  -0.2401  -0.1329  -0.1327  -0.0324
     0.0269   0.0456   0.1970   0.2105   0.2418   0.3665   0.4872   0.7071
     0.8016   0.9406   1.8547   3.1276   4.0868   5.2761   6.6111   8.4793
     9.1104   9.4384

          k = 0.2502 0.0003 0.0000 ( 10868 PWs)   bands (ev):

   -43.0765  -2.5451  -2.1925  -1.7922  -1.7359  -1.6984  -1.5820  -1.3949
    -1.3070  -1.2703  -1.1834  -1.1362  -1.0531  -0.9101  -0.8581  -0.6974
    -0.6691  -0.5620  -0.5415  -0.4906  -0.4394  -0.2414  -0.2033  -0.1401
    -0.0460   0.0060   0.1487   0.1628   0.3258   0.3452   0.4391   0.5963
     0.7731   0.8273   1.6237   2.7912   3.7433   4.8875   6.0778   8.1810
     8.7782   9.1147

          k = 0.2502 0.1447 0.0000 ( 10860 PWs)   bands (ev):

   -43.0743  -2.3749  -2.1067  -1.9607  -1.8609  -1.7548  -1.6527  -1.5286
    -1.4220  -1.2764  -1.1516  -1.0212  -0.8986  -0.7019  -0.6510  -0.6220
    -0.5308  -0.4415  -0.4411  -0.2746  -0.2400  -0.1328  -0.1327  -0.0323
     0.0269   0.0456   0.1970   0.2106   0.2419   0.3665   0.4872   0.7072
     0.8016   0.9407   1.8548   3.1276   4.0868   5.2761   6.6111   8.4803
     9.0983   9.4627

          k = 0.2502 0.2890 0.0000 ( 10819 PWs)   bands (ev):

   -43.0687  -2.0223  -1.9168  -1.8507  -1.7880  -1.7250  -1.6703  -1.5787
    -1.4338  -1.3868  -1.2189  -1.0804  -0.9781  -0.8206  -0.7820  -0.6776
    -0.5772  -0.5398  -0.3803  -0.3203  -0.2268  -0.1010   0.0215   0.0918
     0.1885   0.3961   0.4381   0.6662   0.7142   0.7767   0.9252   1.3475
     1.4792   1.9176   2.9506   4.1987   5.1327   6.4198   8.0197   9.3511
    10.0838  10.4523

          k = 0.2502-0.7216 0.0000 ( 10755 PWs)   bands (ev):

   -43.0631  -1.9293  -1.8897  -1.7647  -1.7302  -1.5901  -1.4975  -1.4582
    -1.3410  -1.3106  -1.2748  -1.1223  -1.0447  -0.9357  -0.8466  -0.7012
    -0.6195  -0.5348  -0.4135  -0.3126  -0.2056  -0.0908   0.0092   0.0874
     0.2094   0.2831   0.4452   0.7454   0.9349   0.9687   1.0975   3.3271
     3.5746   4.0939   5.0159   6.0451   6.9925   8.2964   8.9076   9.6482
     9.8198   9.9925

          k = 0.2502-0.5773 0.0000 ( 10783 PWs)   bands (ev):

   -43.0609  -1.9809  -1.7634  -1.7624  -1.6621  -1.5957  -1.5774  -1.4865
    -1.4078  -1.2938  -1.2210  -1.1573  -1.0818  -0.9294  -0.8760  -0.6523
    -0.5523  -0.4836  -0.3695  -0.2364  -0.1321  -0.1026   0.1272   0.1969
     0.2563   0.3600   0.6305   0.7279   0.8006   0.8961   0.9432   5.3727
     6.0948   6.1941   6.5057   6.9474   7.2401   7.6049   8.0775   8.5177
     8.8496   9.3244

          k = 0.2502-0.4329 0.0000 ( 10756 PWs)   bands (ev):

   -43.0631  -1.9294  -1.8897  -1.7647  -1.7302  -1.5901  -1.4974  -1.4582
    -1.3409  -1.3106  -1.2747  -1.1223  -1.0447  -0.9357  -0.8466  -0.7012
    -0.6195  -0.5348  -0.4135  -0.3126  -0.2056  -0.0908   0.0093   0.0874
     0.2093   0.2831   0.4453   0.7455   0.9349   0.9687   1.0975   3.3271
     3.5746   4.0939   5.0159   6.0451   6.9925   8.2964   8.9076   9.6482
     9.8197   9.9924

          k = 0.2502-0.2885 0.0000 ( 10818 PWs)   bands (ev):

   -43.0687  -2.0222  -1.9169  -1.8507  -1.7879  -1.7251  -1.6704  -1.5787
    -1.4338  -1.3868  -1.2189  -1.0804  -0.9781  -0.8206  -0.7819  -0.6776
    -0.5772  -0.5398  -0.3803  -0.3203  -0.2268  -0.1010   0.0215   0.0918
     0.1885   0.3961   0.4380   0.6662   0.7142   0.7767   0.9252   1.3475
     1.4792   1.9176   2.9505   4.1987   5.1327   6.4198   8.0198   9.3497
    10.1028  10.4227

          k = 0.3754-0.2162 0.0000 ( 10791 PWs)   bands (ev):

   -43.0664  -2.2689  -2.2372  -2.1271  -2.0783  -2.0088  -1.9295  -1.8797
    -1.7235  -1.5370  -1.2108  -0.9822  -0.8193  -0.7596  -0.6886  -0.5526
    -0.3340  -0.2690  -0.1370   0.1488   0.2262   0.4573   0.4767   0.5987
     0.6748   0.6793   0.7529   0.7726   0.8216   0.8733   1.0011   1.4826
     1.8455   2.3310   3.3945   4.6973   5.6900   6.9208   8.4851   8.8256
     9.1793   9.5894

          k = 0.3754-0.0718 0.0000 ( 10820 PWs)   bands (ev):

   -43.0687  -2.0222  -1.9169  -1.8507  -1.7879  -1.7251  -1.6703  -1.5787
    -1.4338  -1.3868  -1.2189  -1.0804  -0.9781  -0.8206  -0.7820  -0.6777
    -0.5772  -0.5398  -0.3803  -0.3203  -0.2268  -0.1010   0.0216   0.0918
     0.1885   0.3961   0.4380   0.6662   0.7142   0.7767   0.9252   1.3475
     1.4792   1.9176   2.9506   4.1987   5.1327   6.4198   8.0197   9.3507
    10.0873  10.4560

          k = 0.3754 0.0726 0.0000 ( 10819 PWs)   bands (ev):

   -43.0687  -2.0223  -1.9168  -1.8507  -1.7880  -1.7250  -1.6703  -1.5787
    -1.4338  -1.3868  -1.2189  -1.0804  -0.9781  -0.8206  -0.7820  -0.6776
    -0.5772  -0.5398  -0.3803  -0.3203  -0.2268  -0.1010   0.0215   0.0918
     0.1885   0.3961   0.4381   0.6662   0.7142   0.7767   0.9252   1.3475
     1.4792   1.9176   2.9506   4.1987   5.1327   6.4198   8.0197   9.3511
    10.0838  10.4520

          k = 0.3754 0.2170 0.0000 ( 10794 PWs)   bands (ev):

   -43.0664  -2.2688  -2.2372  -2.1271  -2.0783  -2.0088  -1.9295  -1.8797
    -1.7235  -1.5370  -1.2108  -0.9822  -0.8194  -0.7596  -0.6886  -0.5526
    -0.3341  -0.2690  -0.1370   0.1488   0.2262   0.4573   0.4767   0.5987
     0.6748   0.6793   0.7530   0.7727   0.8216   0.8733   1.0011   1.4825
     1.8455   2.3310   3.3945   4.6973   5.6899   6.9208   8.4851   8.8256
     9.1791   9.5899

          k = 0.3754-0.7937 0.0000 ( 10771 PWs)   bands (ev):

   -43.0632  -2.2158  -2.1377  -2.0657  -1.9816  -1.9219  -1.8514  -1.7842
    -1.6440  -1.5420  -1.2944  -1.0735  -0.9321  -0.7693  -0.7524  -0.5834
    -0.4976  -0.2122  -0.1110  -0.0348   0.2078   0.2848   0.4065   0.4927
     0.5736   0.6379   0.7032   0.7885   0.9146   0.9535   1.0954   3.3735
     3.6697   4.1291   4.9551   5.9418   6.7944   7.1713   7.7505   8.1021
     8.7101   9.1798

          k = 0.3754-0.6493 0.0000 ( 10768 PWs)   bands (ev):

   -43.0609  -1.9810  -1.7634  -1.7623  -1.6621  -1.5956  -1.5773  -1.4864
    -1.4078  -1.2937  -1.2209  -1.1573  -1.0818  -0.9294  -0.8760  -0.6523
    -0.5523  -0.4836  -0.3695  -0.2364  -0.1321  -0.1026   0.1273   0.1969
     0.2564   0.3601   0.6305   0.7280   0.8006   0.8962   0.9432   5.3727
     6.0948   6.1941   6.5057   6.9474   7.2402   7.6048   8.0775   8.5178
     8.8496   9.3242

          k = 0.3754-0.5049 0.0000 ( 10783 PWs)   bands (ev):

   -43.0609  -1.9809  -1.7634  -1.7624  -1.6621  -1.5957  -1.5774  -1.4865
    -1.4078  -1.2938  -1.2210  -1.1573  -1.0818  -0.9294  -0.8760  -0.6523
    -0.5523  -0.4836  -0.3695  -0.2364  -0.1321  -0.1026   0.1272   0.1969
     0.2563   0.3600   0.6305   0.7279   0.8006   0.8961   0.9432   5.3727
     6.0948   6.1941   6.5057   6.9474   7.2401   7.6048   8.0775   8.5177
     8.8493   9.3224

          k = 0.3754-0.3605 0.0000 ( 10760 PWs)   bands (ev):

   -43.0632  -2.2158  -2.1378  -2.0657  -1.9816  -1.9219  -1.8514  -1.7841
    -1.6440  -1.5420  -1.2944  -1.0735  -0.9320  -0.7693  -0.7524  -0.5834
    -0.4976  -0.2122  -0.1110  -0.0347   0.2078   0.2849   0.4065   0.4928
     0.5736   0.6380   0.7032   0.7885   0.9146   0.9535   1.0955   3.3735
     3.6697   4.1291   4.9551   5.9418   6.7944   7.1713   7.7507   8.1021
     8.7101   9.1798

          k =-0.5005 0.2882 0.0000 ( 10736 PWs)   bands (ev):

   -43.0631  -2.4029  -2.3527  -2.2595  -2.2094  -2.1088  -2.0573  -2.0101
    -1.8679  -1.6688  -1.2753  -1.0430  -0.9059  -0.8289  -0.6086  -0.5496
    -0.3010  -0.1343   0.0684   0.1613   0.4649   0.5714   0.6879   0.8397
     0.8695   0.9422   0.9806   0.9834   1.0621   1.0988   1.1469   3.4495
     3.9668   4.5016   4.9318   5.2348   5.4553   6.7107   7.2321   7.7153
     8.2964   8.8383

          k =-0.5005 0.4326 0.0000 ( 10762 PWs)   bands (ev):

   -43.0632  -2.2158  -2.1378  -2.0657  -1.9816  -1.9219  -1.8514  -1.7841
    -1.6439  -1.5420  -1.2944  -1.0735  -0.9320  -0.7693  -0.7524  -0.5834
    -0.4976  -0.2122  -0.1110  -0.0348   0.2078   0.2848   0.4065   0.4928
     0.5736   0.6380   0.7032   0.7885   0.9146   0.9535   1.0954   3.3735
     3.6697   4.1291   4.9551   5.9418   6.7944   7.1713   7.7507   8.1021
     8.7101   9.1798

          k =-0.5005 0.5770 0.0000 ( 10755 PWs)   bands (ev):

   -43.0631  -1.9293  -1.8897  -1.7647  -1.7302  -1.5901  -1.4975  -1.4582
    -1.3410  -1.3106  -1.2748  -1.1223  -1.0447  -0.9357  -0.8466  -0.7012
    -0.6195  -0.5348  -0.4135  -0.3126  -0.2056  -0.0908   0.0092   0.0874
     0.2094   0.2831   0.4452   0.7454   0.9349   0.9687   1.0975   3.3271
     3.5746   4.0939   5.0159   6.0451   6.9925   8.2964   8.9076   9.6481
     9.8197   9.9923

          k =-0.5005 0.7214 0.0000 ( 10771 PWs)   bands (ev):

   -43.0632  -2.2158  -2.1377  -2.0657  -1.9816  -1.9219  -1.8514  -1.7842
    -1.6440  -1.5420  -1.2944  -1.0735  -0.9321  -0.7693  -0.7524  -0.5834
    -0.4976  -0.2122  -0.1110  -0.0348   0.2078   0.2848   0.4065   0.4927
     0.5736   0.6379   0.7032   0.7885   0.9146   0.9535   1.0954   3.3735
     3.6697   4.1291   4.9551   5.9418   6.7944   7.1713   7.7505   8.1021
     8.7101   9.1798

          k =-0.5005-0.2893 0.0000 ( 10756 PWs)   bands (ev):

   -43.0632  -2.4029  -2.3527  -2.2595  -2.2094  -2.1089  -2.0574  -2.0102
    -1.8679  -1.6689  -1.2754  -1.0430  -0.9058  -0.8289  -0.6087  -0.5497
    -0.3011  -0.1344   0.0682   0.1613   0.4649   0.5715   0.6878   0.8397
     0.8695   0.9422   0.9805   0.9834   1.0621   1.0988   1.1469   3.4495
     3.9668   4.5016   4.9318   5.2348   5.4553   6.7109   7.2315   7.7153
     8.2964   8.8380

     the Fermi energy is     3.8843 ev

!    total energy              =    -520.58594401 Ry
     estimated scf accuracy    <       0.00000068 Ry
     smearing contrib. (-TS)   =      -0.00066386 Ry
     internal energy E=F+TS    =    -520.58528015 Ry

     The total energy is F=E-TS. E is the sum of the following terms:
     one-electron contribution =   -6623.41103639 Ry
     hartree contribution      =    3362.95181576 Ry
     xc contribution           =    -137.67404588 Ry
     ewald contribution        =    2877.74116346 Ry
     DFT-D3 Dispersion         =      -0.19317710 Ry

     convergence has been achieved in  12 iterations

     negative rho (up, down):  7.355E-06 0.000E+00

     Forces acting on atoms (cartesian axes, Ry/au):

     atom    1 type  2   force =    -0.00000709   -0.00000120    0.00017127
     atom    2 type  2   force =    -0.00030384   -0.00017751    0.00690878
     atom    3 type  2   force =     0.00007422    0.00003649   -0.00163409
     atom    4 type  2   force =     0.00013684    0.00007798   -0.00305045
     atom    5 type  2   force =    -0.00004383   -0.00002522    0.00098663
     atom    6 type  2   force =     0.00421417    0.00244238   -0.09657718
     atom    7 type  1   force =    -0.00407046   -0.00235291    0.09319504
     The non-local contrib.  to forces
     atom    1 type  2   force =     0.00264303    0.00152787   -0.06038218
     atom    2 type  2   force =     0.00152126    0.00087531   -0.03476428
     atom    3 type  2   force =    -0.00023059   -0.00014162    0.00536503
     atom    4 type  2   force =     0.00013478    0.00007650   -0.00301327
     atom    5 type  2   force =    -0.00076342   -0.00044312    0.01752814
     atom    6 type  2   force =    -0.00674330   -0.00389229    0.15447462
     atom    7 type  1   force =    -0.00259486   -0.00149908    0.05935975
     The ionic contribution  to forces
     atom    1 type  2   force =     7.13688336    4.12573390 -163.21476471
     atom    2 type  2   force =     4.43583761    2.56429658 -101.44402754
     atom    3 type  2   force =     1.71486381    0.99133914  -39.21755210
     atom    4 type  2   force =    -1.00780942   -0.58259861   23.04773191
     atom    5 type  2   force =    -3.75633153   -2.17148612   85.90439830
     atom    6 type  2   force =    -6.39958550   -3.69951166  146.35113370
     atom    7 type  1   force =    -2.12385833   -1.22777322   48.57308044
     The local contribution  to forces
     atom    1 type  2   force =    -7.13901519   -4.12696818  163.26350645
     atom    2 type  2   force =    -4.43738247   -2.56518776  101.47933219
     atom    3 type  2   force =    -1.71444443   -0.99109928   39.20797375
     atom    4 type  2   force =     1.00780286    0.58259223  -23.04751053
     atom    5 type  2   force =     3.75682790    2.17177289  -85.91574461
     atom    6 type  2   force =     6.41074056    3.70595644 -146.60674242
     atom    7 type  1   force =     2.12235238    1.22689924  -48.53850146
     The core correction contribution to forces
     atom    1 type  2   force =    -0.00024668   -0.00014283    0.00564007
     atom    2 type  2   force =     0.00000991    0.00000593   -0.00022955
     atom    3 type  2   force =    -0.00000224   -0.00000143    0.00005127
     atom    4 type  2   force =    -0.00002996   -0.00001740    0.00068685
     atom    5 type  2   force =     0.00003910    0.00002278   -0.00089548
     atom    6 type  2   force =    -0.00054863   -0.00031729    0.01256215
     atom    7 type  1   force =     0.00000000    0.00000000    0.00000000
     The Hubbard contrib.    to forces
     atom    1 type  2   force =     0.00000000    0.00000000    0.00000000
     atom    2 type  2   force =     0.00000000    0.00000000    0.00000000
     atom    3 type  2   force =     0.00000000    0.00000000    0.00000000
     atom    4 type  2   force =     0.00000000    0.00000000    0.00000000
     atom    5 type  2   force =     0.00000000    0.00000000    0.00000000
     atom    6 type  2   force =     0.00000000    0.00000000    0.00000000
     atom    7 type  1   force =     0.00000000    0.00000000    0.00000000
     The SCF correction term to forces
     atom    1 type  2   force =    -0.00004760   -0.00002498    0.00110940
     atom    2 type  2   force =    -0.00012674   -0.00007563    0.00292128
     atom    3 type  2   force =    -0.00008381   -0.00004636    0.00193628
     atom    4 type  2   force =     0.00004447    0.00002614   -0.00101946
     atom    5 type  2   force =     0.00009144    0.00005223   -0.00211901
     atom    6 type  2   force =     0.00007440    0.00004474   -0.00161749
     atom    7 type  1   force =     0.00001647    0.00000961   -0.00036680

     DFT-D3 dispersion contribution to forces:
     atom    1 type  2   force =    -0.00021849   -0.00012630    0.00499661
     atom    2 type  2   force =    -0.00015790   -0.00009128    0.00361106
     atom    3 type  2   force =    -0.00002300   -0.00001330    0.00052607
     atom    4 type  2   force =    -0.00000036   -0.00000022    0.00000844
     atom    5 type  2   force =     0.00009820    0.00005678   -0.00224633
     atom    6 type  2   force =     0.00028216    0.00016311   -0.00645334
     atom    7 type  1   force =     0.00001939    0.00001121   -0.00044251

     Total force =     0.134607     Total SCF correction =     0.004674


     Computing stress (Cartesian axis) and pressure


     negative rho (up, down):  7.355E-06 0.000E+00
          total   stress  (Ry/bohr**3)                   (kbar)     P=       -4.21
  -0.00009538   0.00000022  -0.00000874          -14.03        0.03       -1.29
   0.00000022  -0.00009561  -0.00000507            0.03      -14.06       -0.75
  -0.00000874  -0.00000507   0.00010505           -1.29       -0.75       15.45


     BFGS Geometry Optimization
     Energy error            =      0.0E+00 Ry
     Gradient error          =      9.7E-02 Ry/Bohr

     number of scf cycles    =   1
     number of bfgs steps    =   0

     energy             new  =    -520.5859440109 Ry

     new trust radius        =       0.0966999236 bohr
     new conv_thr            =       0.0000010000 Ry


ATOMIC_POSITIONS (angstrom)
Ag            1.9495929457        0.5683241094       10.1268746224
Ag            1.8441022487        2.1834695697       12.5393357969
Ag            3.1914643915        1.2862279466       14.9437109392
Ag            1.6392120047        0.3888950381       17.2250732777
Ag            1.5351900629        2.0048962286       19.6038279523
Ag            2.8831378799        1.1079978407       21.9947855307
Li            2.7914112844        1.0549687528       24.0952086603



     Writing config-only to output data dir ./Ag_mp-124_111_ontop_0/Ag_mp-124_111_ontop_0.save/
     NEW-OLD atomic charge density approx. for the potential

     negative rho (up, down):  1.196E-05 0.000E+00

     total cpu time spent up to now is       15.9 secs

     per-process dynamical memory:   187.7 Mb

     Self-consistent Calculation

     iteration #  1     ecut=    55.00 Ry     beta= 0.30
     Davidson diagonalization with overlap
     ethr =  1.00E-06,  avg # of iterations =  8.5

     negative rho (up, down):  1.052E-05 0.000E+00

     total cpu time spent up to now is       17.0 secs

     total energy              =    -520.59937229 Ry
     estimated scf accuracy    <       0.00319081 Ry

     iteration #  2     ecut=    55.00 Ry     beta= 0.30
     Davidson diagonalization with overlap
     ethr =  4.62E-06,  avg # of iterations =  9.2

     negative rho (up, down):  1.069E-05 0.000E+00

     total cpu time spent up to now is       17.6 secs

     total energy              =    -520.59228953 Ry
     estimated scf accuracy    <       0.47251991 Ry

     iteration #  3     ecut=    55.00 Ry     beta= 0.30
     Davidson diagonalization with overlap
     ethr =  4.62E-06,  avg # of iterations = 10.1

     negative rho (up, down):  1.170E-05 0.000E+00

     total cpu time spent up to now is       18.4 secs

     total energy              =    -520.59954349 Ry
     estimated scf accuracy    <       0.02457136 Ry

     iteration #  4     ecut=    55.00 Ry     beta= 0.30
     Davidson diagonalization with overlap
     ethr =  4.62E-06,  avg # of iterations =  4.6

     negative rho (up, down):  1.104E-05 0.000E+00

     total cpu time spent up to now is       18.9 secs

     total energy              =    -520.60036653 Ry
     estimated scf accuracy    <       0.00610447 Ry

     iteration #  5     ecut=    55.00 Ry     beta= 0.30
     Davidson diagonalization with overlap
     ethr =  4.62E-06,  avg # of iterations =  1.7

     negative rho (up, down):  1.024E-05 0.000E+00

     total cpu time spent up to now is       19.2 secs

     total energy              =    -520.60054119 Ry
     estimated scf accuracy    <       0.00018758 Ry

     iteration #  6     ecut=    55.00 Ry     beta= 0.30
     Davidson diagonalization with overlap
     ethr =  2.72E-07,  avg # of iterations =  1.9

     negative rho (up, down):  9.641E-06 0.000E+00

     total cpu time spent up to now is       19.6 secs

     total energy              =    -520.60056026 Ry
     estimated scf accuracy    <       0.00005009 Ry

     iteration #  7     ecut=    55.00 Ry     beta= 0.30
     Davidson diagonalization with overlap
     ethr =  7.26E-08,  avg # of iterations =  1.5

     negative rho (up, down):  8.948E-06 0.000E+00

     total cpu time spent up to now is       20.0 secs

     total energy              =    -520.60056489 Ry
     estimated scf accuracy    <       0.00001672 Ry

     iteration #  8     ecut=    55.00 Ry     beta= 0.30
     Davidson diagonalization with overlap
     ethr =  2.42E-08,  avg # of iterations =  1.9

     negative rho (up, down):  8.365E-06 0.000E+00

     total cpu time spent up to now is       20.3 secs

     total energy              =    -520.60056706 Ry
     estimated scf accuracy    <       0.00000449 Ry

     iteration #  9     ecut=    55.00 Ry     beta= 0.30
     Davidson diagonalization with overlap
     ethr =  6.51E-09,  avg # of iterations =  1.9

     negative rho (up, down):  8.239E-06 0.000E+00

     total cpu time spent up to now is       20.7 secs

     End of self-consistent calculation

          k = 0.0000 0.0000 0.0000 ( 10919 PWs)   bands (ev):

   -43.0736  -3.6891  -3.2174  -2.6238  -2.4428  -2.3560  -2.2404  -1.1545
    -0.8894  -0.8894  -0.8810  -0.8537  -0.8234  -0.8233  -0.7941  -0.7941
    -0.7321  -0.7321  -0.6963  -0.6963  -0.5858  -0.5858  -0.2015   0.0013
     0.0014   0.1452   0.1453   0.1753   0.1753   0.4157   0.4157   0.6692
     0.6692   0.8767   0.8767   1.0145   2.1939   3.4018   3.9003   7.2249
     7.7930   8.1532

          k = 0.0000 0.1444 0.0000 ( 10876 PWs)   bands (ev):

   -43.0703  -3.2788  -2.8271  -2.2589  -2.1875  -2.0833  -1.9373  -1.2673
    -1.0998  -1.0247  -0.9590  -0.9181  -0.8828  -0.7638  -0.7300  -0.6851
    -0.6551  -0.5978  -0.5962  -0.5453  -0.5415  -0.5142  -0.3859  -0.3093
    -0.1003  -0.0119   0.0499   0.0720   0.1929   0.2242   0.4217   0.4306
     0.6828   0.8946   0.9240   1.8853   2.8875   3.9413   4.7410   7.5517
     8.1309   8.4548

          k = 0.0000 0.2888 0.0000 ( 10871 PWs)   bands (ev):

   -43.0628  -2.4019  -2.1353  -1.9810  -1.8746  -1.7681  -1.6500  -1.5497
    -1.4279  -1.2842  -1.1486  -1.0061  -0.8723  -0.7061  -0.6582  -0.6447
    -0.5228  -0.4529  -0.4417  -0.2789  -0.2378  -0.1387  -0.1380  -0.0200
     0.0309   0.0351   0.1863   0.2009   0.2390   0.3674   0.4837   0.7064
     0.7959   0.9306   1.8500   3.0996   4.0531   5.2505   6.5846   8.4739
     9.1123   9.4484

          k = 0.0000 0.4332 0.0000 ( 10791 PWs)   bands (ev):

   -43.0549  -2.2900  -2.2607  -2.1497  -2.0929  -2.0287  -1.9222  -1.8948
    -1.7363  -1.5204  -1.1848  -0.9792  -0.8290  -0.7814  -0.6753  -0.5623
    -0.3347  -0.2512  -0.1317   0.1578   0.2272   0.4500   0.4767   0.6197
     0.6651   0.6687   0.7476   0.7628   0.8090   0.8582   0.9906   1.4768
     1.8394   2.3331   3.3891   4.6505   5.6360   6.8936   8.4552   8.8057
     9.1416   9.5432

          k = 0.0000-0.5775 0.0000 ( 10736 PWs)   bands (ev):

   -43.0516  -2.4248  -2.3724  -2.2858  -2.2258  -2.1199  -2.0521  -2.0293
    -1.8791  -1.6484  -1.2510  -1.0474  -0.9180  -0.8510  -0.6185  -0.5149
    -0.2812  -0.1357   0.0761   0.1740   0.4628   0.5739   0.6828   0.8341
     0.8988   0.9286   0.9682   0.9696   1.0481   1.0843   1.1313   3.4718
     3.9680   4.4956   4.9196   5.2202   5.4399   6.5699   7.1340   7.6949
     8.2805   8.8244

          k = 0.1251-0.0721 0.0000 ( 10876 PWs)   bands (ev):

   -43.0703  -3.2788  -2.8271  -2.2589  -2.1875  -2.0833  -1.9373  -1.2673
    -1.0998  -1.0247  -0.9590  -0.9181  -0.8828  -0.7638  -0.7300  -0.6851
    -0.6551  -0.5978  -0.5962  -0.5453  -0.5415  -0.5142  -0.3859  -0.3093
    -0.1003  -0.0119   0.0499   0.0720   0.1929   0.2242   0.4217   0.4306
     0.6828   0.8946   0.9240   1.8853   2.8875   3.9413   4.7410   7.5517
     8.1309   8.4548

          k = 0.1251 0.0723 0.0000 ( 10875 PWs)   bands (ev):

   -43.0703  -3.2788  -2.8271  -2.2589  -2.1875  -2.0833  -1.9373  -1.2673
    -1.0998  -1.0247  -0.9590  -0.9181  -0.8827  -0.7638  -0.7300  -0.6850
    -0.6551  -0.5977  -0.5963  -0.5453  -0.5415  -0.5142  -0.3859  -0.3093
    -0.1004  -0.0118   0.0500   0.0720   0.1929   0.2242   0.4218   0.4306
     0.6828   0.8946   0.9240   1.8853   2.8875   3.9413   4.7410   7.5520
     8.1268   8.4629

          k = 0.1251 0.2167 0.0000 ( 10868 PWs)   bands (ev):

   -43.0649  -2.5732  -2.2247  -1.8113  -1.7540  -1.7069  -1.5878  -1.4024
    -1.3216  -1.2795  -1.1981  -1.1169  -1.0377  -0.9114  -0.8677  -0.6930
    -0.6768  -0.5783  -0.5368  -0.4743  -0.4462  -0.2478  -0.1977  -0.1452
    -0.0537   0.0090   0.1412   0.1807   0.3230   0.3364   0.4238   0.5989
     0.7600   0.8193   1.6182   2.7670   3.7134   4.8598   6.0527   8.1828
     8.7816   9.1261

          k = 0.1251 0.3611 0.0000 ( 10820 PWs)   bands (ev):

   -43.0572  -2.0467  -1.9388  -1.8730  -1.8071  -1.7424  -1.6904  -1.5813
    -1.4222  -1.3961  -1.2105  -1.0832  -0.9757  -0.8281  -0.7778  -0.6802
    -0.5857  -0.5301  -0.3689  -0.3179  -0.2275  -0.1047   0.0230   0.1001
     0.1843   0.3977   0.4333   0.6673   0.7064   0.7635   0.9141   1.3440
     1.4687   1.9170   2.9447   4.1567   5.0937   6.3960   7.9863   9.3253
    10.0815  10.4625

          k = 0.1251-0.6496 0.0000 ( 10762 PWs)   bands (ev):

   -43.0516  -2.2371  -2.1592  -2.0907  -1.9983  -1.9289  -1.8775  -1.7810
    -1.6396  -1.5420  -1.2885  -1.0803  -0.9317  -0.7783  -0.7427  -0.5783
    -0.4902  -0.1988  -0.1035  -0.0314   0.2174   0.2898   0.4046   0.4890
     0.5771   0.6327   0.6887   0.7875   0.9023   0.9457   1.0837   3.3791
     3.6649   4.1260   4.9367   5.8945   6.7338   7.1382   7.7070   8.0784
     8.6920   9.1345

          k = 0.1251-0.5052 0.0000 ( 10760 PWs)   bands (ev):

   -43.0516  -2.2371  -2.1592  -2.0907  -1.9983  -1.9289  -1.8775  -1.7810
    -1.6396  -1.5420  -1.2885  -1.0803  -0.9317  -0.7783  -0.7427  -0.5782
    -0.4902  -0.1988  -0.1035  -0.0314   0.2174   0.2898   0.4047   0.4890
     0.5771   0.6327   0.6887   0.7875   0.9023   0.9458   1.0837   3.3791
     3.6649   4.1260   4.9367   5.8945   6.7338   7.1382   7.7070   8.0784
     8.6920   9.1345

          k = 0.1251-0.3608 0.0000 ( 10818 PWs)   bands (ev):

   -43.0572  -2.0467  -1.9388  -1.8730  -1.8071  -1.7424  -1.6905  -1.5813
    -1.4223  -1.3961  -1.2105  -1.0832  -0.9757  -0.8281  -0.7778  -0.6802
    -0.5857  -0.5300  -0.3689  -0.3179  -0.2275  -0.1047   0.0230   0.1002
     0.1843   0.3977   0.4333   0.6673   0.7063   0.7635   0.9141   1.3441
     1.4687   1.9170   2.9447   4.1567   5.0937   6.3959   7.9863   9.3244
    10.0952  10.4320

          k = 0.1251-0.2164 0.0000 ( 10863 PWs)   bands (ev):

   -43.0649  -2.5732  -2.2247  -1.8113  -1.7540  -1.7069  -1.5878  -1.4024
    -1.3216  -1.2795  -1.1981  -1.1169  -1.0377  -0.9114  -0.8676  -0.6930
    -0.6767  -0.5783  -0.5368  -0.4743  -0.4462  -0.2478  -0.1977  -0.1452
    -0.0537   0.0090   0.1412   0.1808   0.3230   0.3364   0.4237   0.5989
     0.7600   0.8193   1.6182   2.7670   3.7134   4.8598   6.0527   8.1816
     8.7975   9.0954

          k = 0.2502-0.1441 0.0000 ( 10871 PWs)   bands (ev):

   -43.0628  -2.4019  -2.1354  -1.9810  -1.8746  -1.7681  -1.6500  -1.5497
    -1.4279  -1.2842  -1.1486  -1.0061  -0.8723  -0.7061  -0.6582  -0.6447
    -0.5228  -0.4529  -0.4417  -0.2789  -0.2378  -0.1387  -0.1380  -0.0200
     0.0309   0.0351   0.1863   0.2009   0.2390   0.3674   0.4837   0.7064
     0.7959   0.9306   1.8500   3.0996   4.0531   5.2505   6.5846   8.4739
     9.1124   9.4485

          k = 0.2502 0.0003 0.0000 ( 10868 PWs)   bands (ev):

   -43.0649  -2.5732  -2.2247  -1.8113  -1.7540  -1.7069  -1.5878  -1.4024
    -1.3216  -1.2795  -1.1981  -1.1169  -1.0377  -0.9114  -0.8677  -0.6930
    -0.6768  -0.5783  -0.5368  -0.4743  -0.4462  -0.2478  -0.1977  -0.1452
    -0.0537   0.0090   0.1412   0.1807   0.3230   0.3364   0.4238   0.5989
     0.7600   0.8193   1.6182   2.7670   3.7134   4.8598   6.0527   8.1828
     8.7816   9.1260

          k = 0.2502 0.1447 0.0000 ( 10860 PWs)   bands (ev):

   -43.0627  -2.4019  -2.1353  -1.9810  -1.8746  -1.7681  -1.6500  -1.5497
    -1.4279  -1.2841  -1.1485  -1.0061  -0.8723  -0.7061  -0.6582  -0.6446
    -0.5228  -0.4529  -0.4417  -0.2789  -0.2378  -0.1387  -0.1380  -0.0200
     0.0310   0.0351   0.1863   0.2010   0.2390   0.3674   0.4837   0.7064
     0.7960   0.9307   1.8500   3.0997   4.0531   5.2505   6.5846   8.4748
     9.1007   9.4725

          k = 0.2502 0.2890 0.0000 ( 10819 PWs)   bands (ev):

   -43.0572  -2.0467  -1.9387  -1.8730  -1.8071  -1.7424  -1.6904  -1.5813
    -1.4222  -1.3961  -1.2105  -1.0832  -0.9757  -0.8281  -0.7778  -0.6802
    -0.5857  -0.5300  -0.3689  -0.3179  -0.2274  -0.1047   0.0230   0.1001
     0.1843   0.3977   0.4334   0.6673   0.7063   0.7635   0.9141   1.3440
     1.4687   1.9170   2.9447   4.1567   5.0937   6.3960   7.9863   9.3257
    10.0779  10.4606

          k = 0.2502-0.7216 0.0000 ( 10755 PWs)   bands (ev):

   -43.0516  -1.9466  -1.9187  -1.7784  -1.7456  -1.6073  -1.5224  -1.4698
    -1.3592  -1.3094  -1.2856  -1.1276  -1.0236  -0.9404  -0.8330  -0.6862
    -0.6160  -0.5250  -0.4171  -0.3211  -0.1837  -0.1040   0.0384   0.0930
     0.1985   0.2772   0.4466   0.7493   0.9256   0.9620   1.0847   3.3248
     3.5684   4.0896   4.9920   5.9859   6.9545   8.2646   8.9092   9.6310
     9.7970   9.9583

          k = 0.2502-0.5773 0.0000 ( 10783 PWs)   bands (ev):

   -43.0494  -2.0037  -1.7925  -1.7745  -1.6839  -1.6184  -1.5862  -1.5083
    -1.4215  -1.2969  -1.2358  -1.1681  -1.0315  -0.9133  -0.8770  -0.6548
    -0.5539  -0.4831  -0.3583  -0.2217  -0.1438  -0.0904   0.1239   0.2353
     0.2657   0.3500   0.6159   0.7314   0.7883   0.8905   0.9299   5.3926
     6.0782   6.1778   6.4917   6.9328   7.2094   7.5668   8.0334   8.4682
     8.7823   9.2949

          k = 0.2502-0.4329 0.0000 ( 10756 PWs)   bands (ev):

   -43.0516  -1.9466  -1.9187  -1.7785  -1.7456  -1.6073  -1.5224  -1.4698
    -1.3592  -1.3094  -1.2856  -1.1276  -1.0236  -0.9404  -0.8330  -0.6862
    -0.6161  -0.5250  -0.4171  -0.3211  -0.1837  -0.1040   0.0384   0.0930
     0.1984   0.2772   0.4466   0.7493   0.9256   0.9620   1.0847   3.3247
     3.5684   4.0896   4.9920   5.9859   6.9545   8.2646   8.9091   9.6311
     9.7970   9.9583

          k = 0.2502-0.2885 0.0000 ( 10818 PWs)   bands (ev):

   -43.0572  -2.0467  -1.9388  -1.8730  -1.8071  -1.7424  -1.6905  -1.5813
    -1.4223  -1.3961  -1.2105  -1.0832  -0.9757  -0.8281  -0.7778  -0.6802
    -0.5857  -0.5300  -0.3689  -0.3179  -0.2275  -0.1047   0.0230   0.1002
     0.1843   0.3977   0.4333   0.6673   0.7063   0.7635   0.9141   1.3441
     1.4687   1.9170   2.9447   4.1567   5.0937   6.3959   7.9863   9.3244
    10.0952  10.4321

          k = 0.3754-0.2162 0.0000 ( 10791 PWs)   bands (ev):

   -43.0549  -2.2900  -2.2607  -2.1497  -2.0929  -2.0287  -1.9222  -1.8948
    -1.7363  -1.5204  -1.1848  -0.9792  -0.8290  -0.7814  -0.6753  -0.5623
    -0.3347  -0.2512  -0.1317   0.1578   0.2272   0.4500   0.4767   0.6197
     0.6651   0.6687   0.7476   0.7628   0.8090   0.8582   0.9906   1.4768
     1.8394   2.3331   3.3891   4.6505   5.6360   6.8936   8.4552   8.8057
     9.1415   9.5429

          k = 0.3754-0.0718 0.0000 ( 10820 PWs)   bands (ev):

   -43.0572  -2.0467  -1.9388  -1.8730  -1.8071  -1.7424  -1.6904  -1.5813
    -1.4222  -1.3961  -1.2105  -1.0832  -0.9757  -0.8281  -0.7778  -0.6802
    -0.5857  -0.5301  -0.3689  -0.3179  -0.2275  -0.1047   0.0230   0.1001
     0.1843   0.3977   0.4333   0.6673   0.7064   0.7635   0.9141   1.3440
     1.4687   1.9170   2.9447   4.1567   5.0937   6.3960   7.9863   9.3253
    10.0815  10.4625

          k = 0.3754 0.0726 0.0000 ( 10819 PWs)   bands (ev):

   -43.0572  -2.0467  -1.9387  -1.8730  -1.8071  -1.7424  -1.6904  -1.5813
    -1.4222  -1.3961  -1.2105  -1.0832  -0.9757  -0.8281  -0.7778  -0.6802
    -0.5857  -0.5300  -0.3689  -0.3179  -0.2274  -0.1047   0.0230   0.1001
     0.1843   0.3977   0.4334   0.6673   0.7063   0.7635   0.9141   1.3440
     1.4687   1.9170   2.9447   4.1567   5.0937   6.3960   7.9863   9.3257
    10.0779  10.4605

          k = 0.3754 0.2170 0.0000 ( 10794 PWs)   bands (ev):

   -43.0549  -2.2900  -2.2607  -2.1497  -2.0930  -2.0287  -1.9222  -1.8948
    -1.7363  -1.5204  -1.1848  -0.9792  -0.8291  -0.7814  -0.6753  -0.5623
    -0.3348  -0.2512  -0.1316   0.1578   0.2271   0.4500   0.4767   0.6197
     0.6651   0.6686   0.7477   0.7629   0.8090   0.8582   0.9906   1.4768
     1.8394   2.3331   3.3891   4.6505   5.6360   6.8936   8.4552   8.8057
     9.1413   9.5433

          k = 0.3754-0.7937 0.0000 ( 10771 PWs)   bands (ev):

   -43.0517  -2.2371  -2.1592  -2.0907  -1.9984  -1.9289  -1.8775  -1.7810
    -1.6396  -1.5420  -1.2886  -1.0803  -0.9317  -0.7783  -0.7428  -0.5783
    -0.4903  -0.1988  -0.1034  -0.0314   0.2174   0.2898   0.4046   0.4890
     0.5771   0.6326   0.6886   0.7875   0.9023   0.9457   1.0837   3.3791
     3.6649   4.1259   4.9367   5.8945   6.7338   7.1382   7.7068   8.0784
     8.6920   9.1345

          k = 0.3754-0.6493 0.0000 ( 10768 PWs)   bands (ev):

   -43.0494  -2.0037  -1.7925  -1.7744  -1.6839  -1.6184  -1.5861  -1.5083
    -1.4215  -1.2968  -1.2357  -1.1681  -1.0315  -0.9132  -0.8770  -0.6548
    -0.5539  -0.4831  -0.3583  -0.2217  -0.1438  -0.0904   0.1240   0.2354
     0.2657   0.3501   0.6159   0.7314   0.7883   0.8905   0.9300   5.3926
     6.0782   6.1778   6.4917   6.9328   7.2096   7.5668   8.0333   8.4682
     8.7821   9.2949

          k = 0.3754-0.5049 0.0000 ( 10783 PWs)   bands (ev):

   -43.0494  -2.0037  -1.7925  -1.7745  -1.6839  -1.6184  -1.5862  -1.5083
    -1.4215  -1.2969  -1.2358  -1.1681  -1.0315  -0.9133  -0.8770  -0.6548
    -0.5539  -0.4831  -0.3583  -0.2217  -0.1438  -0.0904   0.1239   0.2353
     0.2657   0.3500   0.6159   0.7314   0.7883   0.8905   0.9299   5.3926
     6.0782   6.1778   6.4917   6.9328   7.2094   7.5668   8.0334   8.4682
     8.7823   9.2944

          k = 0.3754-0.3605 0.0000 ( 10760 PWs)   bands (ev):

   -43.0516  -2.2371  -2.1592  -2.0907  -1.9983  -1.9289  -1.8775  -1.7810
    -1.6396  -1.5420  -1.2885  -1.0803  -0.9317  -0.7783  -0.7427  -0.5782
    -0.4902  -0.1988  -0.1035  -0.0314   0.2174   0.2898   0.4047   0.4890
     0.5771   0.6327   0.6887   0.7875   0.9023   0.9458   1.0837   3.3791
     3.6649   4.1260   4.9367   5.8945   6.7338   7.1382   7.7070   8.0784
     8.6920   9.1345

          k =-0.5005 0.2882 0.0000 ( 10736 PWs)   bands (ev):

   -43.0516  -2.4248  -2.3724  -2.2858  -2.2258  -2.1199  -2.0521  -2.0293
    -1.8791  -1.6484  -1.2510  -1.0474  -0.9180  -0.8510  -0.6185  -0.5149
    -0.2812  -0.1357   0.0761   0.1740   0.4628   0.5739   0.6828   0.8341
     0.8988   0.9286   0.9682   0.9696   1.0481   1.0843   1.1313   3.4718
     3.9680   4.4956   4.9196   5.2202   5.4400   6.5699   7.1340   7.6949
     8.2805   8.8244

          k =-0.5005 0.4326 0.0000 ( 10762 PWs)   bands (ev):

   -43.0516  -2.2371  -2.1592  -2.0907  -1.9983  -1.9289  -1.8775  -1.7810
    -1.6396  -1.5420  -1.2885  -1.0803  -0.9317  -0.7783  -0.7427  -0.5783
    -0.4902  -0.1988  -0.1035  -0.0314   0.2174   0.2898   0.4046   0.4890
     0.5771   0.6327   0.6887   0.7875   0.9023   0.9457   1.0837   3.3791
     3.6649   4.1260   4.9367   5.8945   6.7338   7.1382   7.7070   8.0784
     8.6920   9.1345

          k =-0.5005 0.5770 0.0000 ( 10755 PWs)   bands (ev):

   -43.0516  -1.9466  -1.9187  -1.7784  -1.7456  -1.6073  -1.5224  -1.4698
    -1.3592  -1.3094  -1.2856  -1.1276  -1.0236  -0.9404  -0.8330  -0.6862
    -0.6160  -0.5250  -0.4171  -0.3211  -0.1837  -0.1040   0.0384   0.0930
     0.1985   0.2772   0.4466   0.7493   0.9256   0.9620   1.0847   3.3248
     3.5684   4.0896   4.9920   5.9859   6.9545   8.2646   8.9092   9.6310
     9.7970   9.9582

          k =-0.5005 0.7214 0.0000 ( 10771 PWs)   bands (ev):

   -43.0517  -2.2371  -2.1592  -2.0907  -1.9984  -1.9289  -1.8775  -1.7810
    -1.6396  -1.5420  -1.2886  -1.0803  -0.9317  -0.7783  -0.7428  -0.5783
    -0.4903  -0.1988  -0.1034  -0.0314   0.2174   0.2898   0.4046   0.4890
     0.5771   0.6326   0.6886   0.7875   0.9023   0.9457   1.0837   3.3791
     3.6649   4.1259   4.9367   5.8945   6.7338   7.1382   7.7068   8.0784
     8.6920   9.1345

          k =-0.5005-0.2893 0.0000 ( 10756 PWs)   bands (ev):

   -43.0517  -2.4249  -2.3723  -2.2859  -2.2259  -2.1199  -2.0521  -2.0294
    -1.8791  -1.6485  -1.2511  -1.0474  -0.9180  -0.8510  -0.6186  -0.5150
    -0.2813  -0.1358   0.0759   0.1739   0.4628   0.5740   0.6827   0.8341
     0.8988   0.9286   0.9682   0.9695   1.0480   1.0843   1.1314   3.4718
     3.9679   4.4956   4.9196   5.2202   5.4399   6.5701   7.1335   7.6950
     8.2805   8.8243

     the Fermi energy is     3.8662 ev

!    total energy              =    -520.60056724 Ry
     estimated scf accuracy    <       0.00000032 Ry
     smearing contrib. (-TS)   =      -0.00082685 Ry
     internal energy E=F+TS    =    -520.59974038 Ry

     The total energy is F=E-TS. E is the sum of the following terms:
     one-electron contribution =   -6644.20060921 Ry
     hartree contribution      =    3373.35166921 Ry
     xc contribution           =    -137.66122974 Ry
     ewald contribution        =    2888.10422879 Ry
     DFT-D3 Dispersion         =      -0.19379943 Ry

     convergence has been achieved in   9 iterations

     negative rho (up, down):  8.239E-06 0.000E+00

     Forces acting on atoms (cartesian axes, Ry/au):

     atom    1 type  2   force =    -0.00000587   -0.00000351    0.00012834
     atom    2 type  2   force =    -0.00026213   -0.00015057    0.00596027
     atom    3 type  2   force =     0.00006723    0.00003692   -0.00149785
     atom    4 type  2   force =     0.00010499    0.00005946   -0.00232393
     atom    5 type  2   force =     0.00019596    0.00011765   -0.00453833
     atom    6 type  2   force =     0.00257256    0.00148619   -0.05899396
     atom    7 type  1   force =    -0.00267274   -0.00154614    0.06126546
     The non-local contrib.  to forces
     atom    1 type  2   force =     0.00261450    0.00151081   -0.05983068
     atom    2 type  2   force =     0.00154885    0.00089476   -0.03543086
     atom    3 type  2   force =    -0.00025975   -0.00015219    0.00598637
     atom    4 type  2   force =     0.00018997    0.00010886   -0.00428536
     atom    5 type  2   force =    -0.00051349   -0.00029149    0.01164648
     atom    6 type  2   force =    -0.00521498   -0.00301490    0.11942622
     atom    7 type  1   force =    -0.00236956   -0.00136834    0.05421025
     The ionic contribution  to forces
     atom    1 type  2   force =     7.14289193    4.12920596 -163.35219029
     atom    2 type  2   force =     4.44485720    2.56951071 -101.65025255
     atom    3 type  2   force =     1.71992479    0.99426778  -39.33331905
     atom    4 type  2   force =    -1.00354504   -0.58013461   22.95017389
     atom    5 type  2   force =    -3.75266576   -2.16936555   85.82054583
     atom    6 type  2   force =    -6.44920464   -3.72819555  147.48632256
     atom    7 type  1   force =    -2.10225848   -1.21528874   48.07871960
     The local contribution  to forces
     atom    1 type  2   force =    -7.14506558   -4.13046227  163.40190050
     atom    2 type  2   force =    -4.44643378   -2.57042111  101.68634301
     atom    3 type  2   force =    -1.71955145   -0.99405123   39.32474956
     atom    4 type  2   force =     1.00352459    0.58012231  -22.94969835
     atom    5 type  2   force =     3.75328129    2.16972149  -85.83463971
     atom    6 type  2   force =     6.45700994    3.73270688 -147.66518946
     atom    7 type  1   force =     2.10193563    1.21510019  -48.07123482
     The core correction contribution to forces
     atom    1 type  2   force =    -0.00024458   -0.00014141    0.00559412
     atom    2 type  2   force =     0.00000384    0.00000223   -0.00008474
     atom    3 type  2   force =    -0.00000029   -0.00000008    0.00000490
     atom    4 type  2   force =    -0.00002705   -0.00001560    0.00061760
     atom    5 type  2   force =     0.00000352    0.00000204   -0.00008126
     atom    6 type  2   force =    -0.00036071   -0.00020858    0.00826339
     atom    7 type  1   force =     0.00000000    0.00000000    0.00000000
     The Hubbard contrib.    to forces
     atom    1 type  2   force =     0.00000000    0.00000000    0.00000000
     atom    2 type  2   force =     0.00000000    0.00000000    0.00000000
     atom    3 type  2   force =     0.00000000    0.00000000    0.00000000
     atom    4 type  2   force =     0.00000000    0.00000000    0.00000000
     atom    5 type  2   force =     0.00000000    0.00000000    0.00000000
     atom    6 type  2   force =     0.00000000    0.00000000    0.00000000
     atom    7 type  1   force =     0.00000000    0.00000000    0.00000000
     The SCF correction term to forces
     atom    1 type  2   force =     0.00001398    0.00000899   -0.00031078
     atom    2 type  2   force =    -0.00007999   -0.00004502    0.00174386
     atom    3 type  2   force =    -0.00002520   -0.00001463    0.00058012
     atom    4 type  2   force =    -0.00003566   -0.00001978    0.00080324
     atom    5 type  2   force =    -0.00000158   -0.00000135    0.00007112
     atom    6 type  2   force =     0.00004618    0.00002744   -0.00105434
     atom    7 type  1   force =    -0.00000148   -0.00000081    0.00003253

     DFT-D3 dispersion contribution to forces:
     atom    1 type  2   force =    -0.00021795   -0.00012599    0.00498445
     atom    2 type  2   force =    -0.00016007   -0.00009254    0.00366053
     atom    3 type  2   force =    -0.00002270   -0.00001313    0.00051924
     atom    4 type  2   force =    -0.00000366   -0.00000212    0.00008404
     atom    5 type  2   force =     0.00009014    0.00005211   -0.00206181
     atom    6 type  2   force =     0.00029493    0.00017050   -0.00674334
     atom    7 type  1   force =     0.00001932    0.00001117   -0.00044312

     Total force =     0.085534     Total SCF correction =     0.002292


     Computing stress (Cartesian axis) and pressure


     negative rho (up, down):  8.239E-06 0.000E+00
          total   stress  (Ry/bohr**3)                   (kbar)     P=       -5.59
  -0.00008557   0.00000015  -0.00000624          -12.59        0.02       -0.92
   0.00000015  -0.00008575  -0.00000361            0.02      -12.61       -0.53
  -0.00000624  -0.00000361   0.00005733           -0.92       -0.53        8.43

     Energy error            =      1.5E-02 Ry
     Gradient error          =      6.1E-02 Ry/Bohr

     number of scf cycles    =   2
     number of bfgs steps    =   1

     energy             old  =    -520.5859440109 Ry
     energy             new  =    -520.6005672371 Ry

     CASE: energy            _new < energy            _old

     new trust radius        =       0.1063699160 bohr
     new conv_thr            =       0.0000006127 Ry


ATOMIC_POSITIONS (angstrom)
Ag            1.9495875723        0.5683209110       10.1269922567
Ag            1.8438622331        2.1833316880       12.5447932937
Ag            3.1915259309        1.2862617186       14.9423399925
Ag            1.6393082173        0.3889495268       17.2229434552
Ag            1.5353680312        2.0050030802       19.5997061528
Ag            2.8855000846        1.1093625501       21.9406157870
Li            2.7889587486        1.0535500113       24.1514258415



     Writing config-only to output data dir ./Ag_mp-124_111_ontop_0/Ag_mp-124_111_ontop_0.save/
     NEW-OLD atomic charge density approx. for the potential

     negative rho (up, down):  1.156E-05 0.000E+00

     total cpu time spent up to now is       22.8 secs

     per-process dynamical memory:   187.7 Mb

     Self-consistent Calculation

     iteration #  1     ecut=    55.00 Ry     beta= 0.30
     Davidson diagonalization with overlap
     ethr =  1.00E-06,  avg # of iterations =  9.3

     negative rho (up, down):  1.023E-05 0.000E+00

     total cpu time spent up to now is       24.0 secs

     total energy              =    -520.60933394 Ry
     estimated scf accuracy    <       0.00261772 Ry

     iteration #  2     ecut=    55.00 Ry     beta= 0.30
     Davidson diagonalization with overlap
     ethr =  3.79E-06,  avg # of iterations =  8.8

     negative rho (up, down):  1.305E-05 0.000E+00

     total cpu time spent up to now is       24.6 secs

     total energy              =    -520.60500643 Ry
     estimated scf accuracy    <       0.28490594 Ry

     iteration #  3     ecut=    55.00 Ry     beta= 0.30
     Davidson diagonalization with overlap
     ethr =  3.79E-06,  avg # of iterations = 10.2

     negative rho (up, down):  1.660E-05 0.000E+00

     total cpu time spent up to now is       25.2 secs

     total energy              =    -520.60927801 Ry
     estimated scf accuracy    <       0.01697023 Ry

     iteration #  4     ecut=    55.00 Ry     beta= 0.30
     Davidson diagonalization with overlap
     ethr =  3.79E-06,  avg # of iterations =  7.5

     negative rho (up, down):  1.615E-05 0.000E+00

     total cpu time spent up to now is       25.8 secs

     total energy              =    -520.60972510 Ry
     estimated scf accuracy    <       0.01371864 Ry

     iteration #  5     ecut=    55.00 Ry     beta= 0.30
     Davidson diagonalization with overlap
     ethr =  3.79E-06,  avg # of iterations =  3.4

     negative rho (up, down):  1.422E-05 0.000E+00

     total cpu time spent up to now is       26.2 secs

     total energy              =    -520.61012378 Ry
     estimated scf accuracy    <       0.00022277 Ry

     iteration #  6     ecut=    55.00 Ry     beta= 0.30
     Davidson diagonalization with overlap
     ethr =  3.23E-07,  avg # of iterations =  1.8

     negative rho (up, down):  1.266E-05 0.000E+00

     total cpu time spent up to now is       26.5 secs

     total energy              =    -520.61014661 Ry
     estimated scf accuracy    <       0.00005591 Ry

     iteration #  7     ecut=    55.00 Ry     beta= 0.30
     Davidson diagonalization with overlap
     ethr =  8.10E-08,  avg # of iterations =  1.4

     negative rho (up, down):  1.080E-05 0.000E+00

     total cpu time spent up to now is       26.8 secs

     total energy              =    -520.61015154 Ry
     estimated scf accuracy    <       0.00002232 Ry

     iteration #  8     ecut=    55.00 Ry     beta= 0.30
     Davidson diagonalization with overlap
     ethr =  3.23E-08,  avg # of iterations =  1.7

     negative rho (up, down):  8.664E-06 0.000E+00

     total cpu time spent up to now is       27.2 secs

     total energy              =    -520.61015438 Ry
     estimated scf accuracy    <       0.00000513 Ry

     iteration #  9     ecut=    55.00 Ry     beta= 0.30
     Davidson diagonalization with overlap
     ethr =  7.43E-09,  avg # of iterations =  2.1

     negative rho (up, down):  8.564E-06 0.000E+00

     total cpu time spent up to now is       27.5 secs

     End of self-consistent calculation

          k = 0.0000 0.0000 0.0000 ( 10919 PWs)   bands (ev):

   -43.0921  -3.7177  -3.2462  -2.6313  -2.4605  -2.3651  -2.2466  -1.1005
    -0.9039  -0.9038  -0.8911  -0.8650  -0.8558  -0.8557  -0.8012  -0.8012
    -0.7275  -0.7275  -0.7159  -0.7159  -0.5956  -0.5956  -0.2074   0.0362
     0.0362   0.1355   0.1356   0.1711   0.1712   0.4203   0.4203   0.6744
     0.6744   0.8716   0.8717   0.9961   2.1779   3.3676   3.8716   7.2326
     7.7973   8.1624

          k = 0.0000 0.1444 0.0000 ( 10876 PWs)   bands (ev):

   -43.0889  -3.3078  -2.8569  -2.2722  -2.2028  -2.0922  -1.9428  -1.2632
    -1.1070  -1.0441  -0.9753  -0.9243  -0.8786  -0.7598  -0.7551  -0.6816
    -0.6776  -0.6078  -0.6039  -0.5552  -0.5478  -0.5151  -0.3956  -0.2774
    -0.0881  -0.0096   0.0498   0.0814   0.1897   0.2280   0.4097   0.4349
     0.6889   0.8900   0.9157   1.8719   2.8667   3.9104   4.7211   7.5562
     8.1349   8.4624

          k = 0.0000 0.2888 0.0000 ( 10871 PWs)   bands (ev):

   -43.0813  -2.4311  -2.1638  -2.0050  -1.8906  -1.7871  -1.6516  -1.5696
    -1.4346  -1.2958  -1.1493  -0.9965  -0.8406  -0.7074  -0.6756  -0.6611
    -0.5140  -0.4717  -0.4367  -0.2779  -0.2439  -0.1453  -0.1382  -0.0199
     0.0296   0.0398   0.1801   0.1964   0.2395   0.3700   0.4854   0.7144
     0.7958   0.9275   1.8498   3.0728   4.0211   5.2309   6.5622   8.4623
     9.1153   9.4518

          k = 0.0000 0.4332 0.0000 ( 10791 PWs)   bands (ev):

   -43.0735  -2.3142  -2.2878  -2.1768  -2.1099  -2.0495  -1.9265  -1.9067
    -1.7446  -1.5109  -1.1587  -0.9692  -0.8347  -0.8109  -0.6632  -0.5794
    -0.3328  -0.2403  -0.1235   0.1674   0.2331   0.4476   0.4785   0.6273
     0.6587   0.6621   0.7401   0.7653   0.8014   0.8485   0.9869   1.4730
     1.8367   2.3406   3.3873   4.6009   5.5870   6.8731   8.4259   8.7933
     9.1031   9.4998

          k = 0.0000-0.5775 0.0000 ( 10736 PWs)   bands (ev):

   -43.0702  -2.4508  -2.3951  -2.3160  -2.2442  -2.1355  -2.0626  -2.0381
    -1.8862  -1.6352  -1.2247  -1.0452  -0.9247  -0.8804  -0.6356  -0.4852
    -0.2683  -0.1352   0.0902   0.1877   0.4648   0.5836   0.6839   0.8292
     0.9090   0.9268   0.9565   0.9629   1.0386   1.0747   1.1203   3.4946
     3.9743   4.4928   4.9106   5.2087   5.4286   6.4173   7.0505   7.6810
     8.2699   8.8113

          k = 0.1251-0.0721 0.0000 ( 10876 PWs)   bands (ev):

   -43.0889  -3.3078  -2.8569  -2.2722  -2.2028  -2.0922  -1.9428  -1.2632
    -1.1070  -1.0441  -0.9753  -0.9243  -0.8786  -0.7598  -0.7551  -0.6816
    -0.6776  -0.6078  -0.6039  -0.5552  -0.5478  -0.5151  -0.3956  -0.2774
    -0.0881  -0.0096   0.0498   0.0813   0.1897   0.2280   0.4097   0.4349
     0.6889   0.8900   0.9157   1.8719   2.8667   3.9104   4.7211   7.5562
     8.1348   8.4624

          k = 0.1251 0.0723 0.0000 ( 10875 PWs)   bands (ev):

   -43.0889  -3.3078  -2.8569  -2.2722  -2.2028  -2.0923  -1.9428  -1.2632
    -1.1070  -1.0441  -0.9753  -0.9243  -0.8785  -0.7598  -0.7551  -0.6816
    -0.6776  -0.6078  -0.6039  -0.5553  -0.5477  -0.5151  -0.3956  -0.2774
    -0.0881  -0.0096   0.0498   0.0813   0.1897   0.2280   0.4098   0.4348
     0.6889   0.8900   0.9156   1.8719   2.8667   3.9104   4.7211   7.5565
     8.1308   8.4704

          k = 0.1251 0.2167 0.0000 ( 10868 PWs)   bands (ev):

   -43.0835  -2.6030  -2.2555  -1.8395  -1.7716  -1.7206  -1.5951  -1.4133
    -1.3415  -1.2856  -1.2143  -1.1045  -1.0247  -0.9125  -0.8711  -0.6962
    -0.6807  -0.5942  -0.5297  -0.4602  -0.4426  -0.2534  -0.1950  -0.1524
    -0.0628   0.0107   0.1373   0.1959   0.3276   0.3343   0.4123   0.6082
     0.7514   0.8189   1.6176   2.7449   3.6844   4.8379   6.0325   8.1784
     8.7851   9.1308

          k = 0.1251 0.3611 0.0000 ( 10820 PWs)   bands (ev):

   -43.0758  -2.0747  -1.9656  -1.8998  -1.8273  -1.7627  -1.7119  -1.5878
    -1.4209  -1.4016  -1.2042  -1.0875  -0.9760  -0.8346  -0.7744  -0.6860
    -0.5894  -0.5216  -0.3611  -0.3145  -0.2247  -0.1017   0.0216   0.1121
     0.1859   0.4019   0.4328   0.6699   0.7038   0.7548   0.9085   1.3407
     1.4620   1.9217   2.9426   4.1134   5.0592   6.3783   7.9549   9.2968
    10.0781  10.4673

          k = 0.1251-0.6496 0.0000 ( 10762 PWs)   bands (ev):

   -43.0703  -2.2635  -2.1834  -2.1194  -2.0186  -1.9411  -1.9032  -1.7826
    -1.6383  -1.5411  -1.2849  -1.0870  -0.9336  -0.7875  -0.7326  -0.5754
    -0.4867  -0.1867  -0.0955  -0.0249   0.2249   0.2990   0.4064   0.4916
     0.5815   0.6323   0.6778   0.7911   0.8930   0.9426   1.0767   3.3842
     3.6648   4.1276   4.9193   5.8434   6.6751   7.1118   7.6678   8.0620
     8.6801   9.0876

          k = 0.1251-0.5052 0.0000 ( 10760 PWs)   bands (ev):

   -43.0703  -2.2635  -2.1834  -2.1193  -2.0186  -1.9411  -1.9032  -1.7826
    -1.6384  -1.5411  -1.2849  -1.0870  -0.9336  -0.7875  -0.7327  -0.5754
    -0.4867  -0.1867  -0.0955  -0.0249   0.2249   0.2990   0.4065   0.4916
     0.5815   0.6323   0.6778   0.7911   0.8930   0.9426   1.0767   3.3842
     3.6648   4.1276   4.9193   5.8434   6.6751   7.1118   7.6678   8.0620
     8.6801   9.0876

          k = 0.1251-0.3608 0.0000 ( 10818 PWs)   bands (ev):

   -43.0758  -2.0747  -1.9656  -1.8998  -1.8273  -1.7627  -1.7119  -1.5878
    -1.4209  -1.4016  -1.2041  -1.0875  -0.9760  -0.8346  -0.7744  -0.6860
    -0.5894  -0.5216  -0.3611  -0.3145  -0.2247  -0.1017   0.0216   0.1120
     0.1859   0.4019   0.4328   0.6699   0.7038   0.7548   0.9085   1.3407
     1.4619   1.9217   2.9426   4.1134   5.0592   6.3783   7.9549   9.2961
    10.0906  10.4384

          k = 0.1251-0.2164 0.0000 ( 10863 PWs)   bands (ev):

   -43.0835  -2.6030  -2.2555  -1.8395  -1.7716  -1.7206  -1.5950  -1.4133
    -1.3415  -1.2856  -1.2143  -1.1045  -1.0247  -0.9125  -0.8711  -0.6962
    -0.6807  -0.5942  -0.5298  -0.4602  -0.4425  -0.2533  -0.1949  -0.1524
    -0.0628   0.0107   0.1373   0.1959   0.3276   0.3343   0.4123   0.6082
     0.7514   0.8189   1.6176   2.7449   3.6844   4.8379   6.0325   8.1772
     8.8008   9.1003

          k = 0.2502-0.1441 0.0000 ( 10871 PWs)   bands (ev):

   -43.0813  -2.4311  -2.1638  -2.0050  -1.8906  -1.7871  -1.6516  -1.5696
    -1.4346  -1.2958  -1.1493  -0.9965  -0.8406  -0.7074  -0.6756  -0.6611
    -0.5140  -0.4717  -0.4367  -0.2779  -0.2439  -0.1453  -0.1382  -0.0199
     0.0296   0.0398   0.1801   0.1964   0.2395   0.3700   0.4854   0.7144
     0.7958   0.9275   1.8498   3.0728   4.0211   5.2309   6.5622   8.4623
     9.1154   9.4518

          k = 0.2502 0.0003 0.0000 ( 10868 PWs)   bands (ev):

   -43.0835  -2.6030  -2.2555  -1.8395  -1.7716  -1.7206  -1.5951  -1.4133
    -1.3415  -1.2856  -1.2143  -1.1045  -1.0247  -0.9125  -0.8711  -0.6962
    -0.6807  -0.5942  -0.5297  -0.4602  -0.4426  -0.2534  -0.1950  -0.1524
    -0.0628   0.0107   0.1373   0.1959   0.3276   0.3343   0.4123   0.6082
     0.7514   0.8189   1.6176   2.7449   3.6844   4.8379   6.0325   8.1784
     8.7851   9.1308

          k = 0.2502 0.1447 0.0000 ( 10860 PWs)   bands (ev):

   -43.0813  -2.4311  -2.1638  -2.0050  -1.8906  -1.7871  -1.6516  -1.5696
    -1.4346  -1.2957  -1.1493  -0.9965  -0.8405  -0.7074  -0.6756  -0.6611
    -0.5140  -0.4717  -0.4367  -0.2779  -0.2439  -0.1453  -0.1382  -0.0199
     0.0296   0.0398   0.1802   0.1964   0.2396   0.3700   0.4854   0.7144
     0.7958   0.9275   1.8498   3.0729   4.0211   5.2309   6.5622   8.4633
     9.1037   9.4760

          k = 0.2502 0.2890 0.0000 ( 10819 PWs)   bands (ev):

   -43.0758  -2.0747  -1.9656  -1.8998  -1.8273  -1.7626  -1.7119  -1.5878
    -1.4209  -1.4016  -1.2042  -1.0875  -0.9760  -0.8346  -0.7744  -0.6860
    -0.5894  -0.5216  -0.3611  -0.3145  -0.2247  -0.1017   0.0216   0.1120
     0.1859   0.4019   0.4328   0.6698   0.7038   0.7548   0.9085   1.3406
     1.4619   1.9217   2.9426   4.1134   5.0592   6.3783   7.9549   9.2972
    10.0742  10.4679

          k = 0.2502-0.7216 0.0000 ( 10755 PWs)   bands (ev):

   -43.0702  -1.9697  -1.9531  -1.7998  -1.7619  -1.6260  -1.5515  -1.4842
    -1.3790  -1.3097  -1.2974  -1.1331  -1.0146  -0.9464  -0.8228  -0.6650
    -0.6144  -0.5151  -0.4184  -0.3264  -0.1598  -0.1127   0.0613   0.1082
     0.1910   0.2799   0.4543   0.7566   0.9193   0.9599   1.0766   3.3221
     3.5662   4.0899   4.9682   5.9263   6.9235   8.2390   8.9140   9.6140
     9.7774   9.9209

          k = 0.2502-0.5773 0.0000 ( 10783 PWs)   bands (ev):

   -43.0681  -2.0320  -1.8266  -1.7934  -1.7069  -1.6473  -1.6016  -1.5299
    -1.4307  -1.3034  -1.2510  -1.1813  -1.0048  -0.8911  -0.8707  -0.6552
    -0.5574  -0.4827  -0.3422  -0.2161  -0.1513  -0.0717   0.1255   0.2380
     0.3086   0.3584   0.6047   0.7352   0.7814   0.8896   0.9219   5.4156
     6.0630   6.1638   6.4802   6.9207   7.1770   7.5283   7.9898   8.4263
     8.7253   9.2784

          k = 0.2502-0.4329 0.0000 ( 10756 PWs)   bands (ev):

   -43.0702  -1.9698  -1.9531  -1.7998  -1.7619  -1.6260  -1.5515  -1.4842
    -1.3790  -1.3097  -1.2974  -1.1332  -1.0146  -0.9465  -0.8229  -0.6650
    -0.6144  -0.5151  -0.4184  -0.3264  -0.1598  -0.1127   0.0614   0.1081
     0.1910   0.2799   0.4543   0.7566   0.9193   0.9599   1.0766   3.3221
     3.5662   4.0899   4.9682   5.9262   6.9235   8.2390   8.9140   9.6140
     9.7773   9.9209

          k = 0.2502-0.2885 0.0000 ( 10818 PWs)   bands (ev):

   -43.0758  -2.0747  -1.9656  -1.8998  -1.8273  -1.7627  -1.7119  -1.5878
    -1.4209  -1.4016  -1.2041  -1.0875  -0.9760  -0.8346  -0.7744  -0.6860
    -0.5894  -0.5216  -0.3611  -0.3145  -0.2247  -0.1017   0.0216   0.1120
     0.1859   0.4019   0.4328   0.6699   0.7038   0.7548   0.9085   1.3407
     1.4619   1.9217   2.9426   4.1134   5.0592   6.3783   7.9549   9.2961
    10.0906  10.4384

          k = 0.3754-0.2162 0.0000 ( 10791 PWs)   bands (ev):

   -43.0735  -2.3142  -2.2878  -2.1768  -2.1099  -2.0495  -1.9265  -1.9067
    -1.7446  -1.5109  -1.1587  -0.9692  -0.8347  -0.8109  -0.6632  -0.5794
    -0.3328  -0.2403  -0.1235   0.1674   0.2331   0.4476   0.4785   0.6273
     0.6587   0.6621   0.7401   0.7653   0.8014   0.8485   0.9869   1.4730
     1.8367   2.3406   3.3873   4.6009   5.5870   6.8731   8.4259   8.7933
     9.1031   9.4997

          k = 0.3754-0.0718 0.0000 ( 10820 PWs)   bands (ev):

   -43.0758  -2.0747  -1.9656  -1.8998  -1.8273  -1.7627  -1.7119  -1.5878
    -1.4209  -1.4016  -1.2042  -1.0875  -0.9760  -0.8346  -0.7744  -0.6860
    -0.5894  -0.5216  -0.3611  -0.3145  -0.2247  -0.1017   0.0216   0.1121
     0.1859   0.4019   0.4328   0.6699   0.7038   0.7548   0.9085   1.3407
     1.4620   1.9217   2.9426   4.1134   5.0592   6.3783   7.9549   9.2968
    10.0781  10.4673

          k = 0.3754 0.0726 0.0000 ( 10819 PWs)   bands (ev):

   -43.0758  -2.0747  -1.9656  -1.8998  -1.8273  -1.7626  -1.7119  -1.5878
    -1.4209  -1.4016  -1.2042  -1.0875  -0.9760  -0.8346  -0.7744  -0.6860
    -0.5894  -0.5216  -0.3611  -0.3145  -0.2247  -0.1017   0.0216   0.1120
     0.1859   0.4019   0.4328   0.6699   0.7038   0.7548   0.9085   1.3406
     1.4619   1.9217   2.9426   4.1134   5.0592   6.3783   7.9549   9.2972
    10.0741  10.4679

          k = 0.3754 0.2170 0.0000 ( 10794 PWs)   bands (ev):

   -43.0735  -2.3142  -2.2878  -2.1769  -2.1099  -2.0495  -1.9265  -1.9066
    -1.7447  -1.5109  -1.1587  -0.9692  -0.8347  -0.8108  -0.6632  -0.5794
    -0.3329  -0.2404  -0.1234   0.1674   0.2331   0.4476   0.4785   0.6273
     0.6587   0.6621   0.7401   0.7654   0.8014   0.8485   0.9869   1.4730
     1.8367   2.3406   3.3873   4.6009   5.5871   6.8731   8.4259   8.7933
     9.1029   9.5001

          k = 0.3754-0.7937 0.0000 ( 10771 PWs)   bands (ev):

   -43.0703  -2.2635  -2.1834  -2.1194  -2.0186  -1.9411  -1.9032  -1.7826
    -1.6384  -1.5412  -1.2849  -1.0870  -0.9336  -0.7875  -0.7327  -0.5754
    -0.4867  -0.1867  -0.0955  -0.0249   0.2249   0.2990   0.4065   0.4916
     0.5814   0.6323   0.6778   0.7910   0.8930   0.9426   1.0767   3.3842
     3.6648   4.1276   4.9193   5.8434   6.6752   7.1119   7.6676   8.0620
     8.6801   9.0875

          k = 0.3754-0.6493 0.0000 ( 10768 PWs)   bands (ev):

   -43.0680  -2.0321  -1.8266  -1.7934  -1.7069  -1.6473  -1.6016  -1.5299
    -1.4307  -1.3034  -1.2510  -1.1813  -1.0048  -0.8911  -0.8706  -0.6551
    -0.5574  -0.4827  -0.3422  -0.2162  -0.1513  -0.0717   0.1256   0.2381
     0.3086   0.3585   0.6048   0.7353   0.7814   0.8896   0.9219   5.4156
     6.0630   6.1638   6.4802   6.9207   7.1772   7.5282   7.9897   8.4261
     8.7251   9.2680

          k = 0.3754-0.5049 0.0000 ( 10783 PWs)   bands (ev):

   -43.0681  -2.0320  -1.8266  -1.7934  -1.7069  -1.6473  -1.6016  -1.5299
    -1.4307  -1.3034  -1.2510  -1.1813  -1.0048  -0.8911  -0.8707  -0.6552
    -0.5574  -0.4827  -0.3422  -0.2161  -0.1513  -0.0717   0.1255   0.2380
     0.3086   0.3584   0.6047   0.7352   0.7814   0.8896   0.9219   5.4156
     6.0630   6.1638   6.4802   6.9207   7.1770   7.5283   7.9897   8.4262
     8.7252   9.2679

          k = 0.3754-0.3605 0.0000 ( 10760 PWs)   bands (ev):

   -43.0703  -2.2635  -2.1834  -2.1193  -2.0186  -1.9411  -1.9032  -1.7826
    -1.6384  -1.5411  -1.2849  -1.0870  -0.9336  -0.7875  -0.7327  -0.5754
    -0.4867  -0.1867  -0.0955  -0.0249   0.2249   0.2990   0.4065   0.4916
     0.5815   0.6323   0.6778   0.7911   0.8930   0.9426   1.0767   3.3842
     3.6648   4.1276   4.9193   5.8434   6.6751   7.1118   7.6678   8.0620
     8.6802   9.0876

          k =-0.5005 0.2882 0.0000 ( 10736 PWs)   bands (ev):

   -43.0702  -2.4508  -2.3951  -2.3160  -2.2442  -2.1355  -2.0626  -2.0381
    -1.8862  -1.6352  -1.2247  -1.0452  -0.9247  -0.8804  -0.6356  -0.4852
    -0.2683  -0.1352   0.0902   0.1877   0.4648   0.5836   0.6839   0.8292
     0.9090   0.9268   0.9565   0.9629   1.0386   1.0747   1.1203   3.4946
     3.9743   4.4928   4.9106   5.2087   5.4286   6.4173   7.0505   7.6810
     8.2704   8.8111

[...]
    -1.4052  -1.3828  -1.1884  -1.0899  -0.9531  -0.8772  -0.7695  -0.6562
    -0.5947  -0.4890  -0.3373  -0.2820  -0.2257  -0.0981   0.0098   0.1081
     0.1892   0.4020   0.4339   0.6720   0.6982   0.7380   0.9035   1.3418
     1.4620   1.9300   2.9147   3.9983   4.9476   6.3242   7.8300   9.1638
    10.0747  10.4422

          k = 0.1251-0.2164 0.0000 ( 10863 PWs)   bands (ev):

   -43.2088  -2.6496  -2.2594  -1.8440  -1.7919  -1.7165  -1.5861  -1.4154
    -1.3333  -1.3143  -1.2524  -1.0535  -0.9747  -0.8943  -0.8812  -0.7072
    -0.6847  -0.6320  -0.5197  -0.4560  -0.3776  -0.2741  -0.1754  -0.1482
    -0.0815   0.0110   0.1503   0.2007   0.3108   0.3443   0.3903   0.6000
     0.7513   0.8138   1.6026   2.6744   3.5877   4.7608   5.9626   8.0654
     8.8182   9.0561

          k = 0.2502-0.1441 0.0000 ( 10871 PWs)   bands (ev):

   -43.2066  -2.4750  -2.1750  -2.0285  -1.8995  -1.7928  -1.6388  -1.5537
    -1.4366  -1.2726  -1.1615  -0.9961  -0.7954  -0.7087  -0.7027  -0.6615
    -0.5011  -0.4629  -0.3871  -0.2763  -0.2472  -0.1456  -0.1451  -0.0301
     0.0138   0.0798   0.1615   0.1911   0.2354   0.3644   0.4765   0.7048
     0.7962   0.9296   1.8335   2.9916   3.9160   5.1619   6.4792   8.3336
     9.1268   9.4180

          k = 0.2502 0.0003 0.0000 ( 10868 PWs)   bands (ev):

   -43.2088  -2.6496  -2.2594  -1.8440  -1.7920  -1.7165  -1.5861  -1.4155
    -1.3333  -1.3144  -1.2524  -1.0535  -0.9747  -0.8943  -0.8812  -0.7072
    -0.6847  -0.6320  -0.5197  -0.4561  -0.3776  -0.2742  -0.1755  -0.1482
    -0.0815   0.0110   0.1503   0.2007   0.3107   0.3443   0.3904   0.6000
     0.7513   0.8138   1.6026   2.6743   3.5877   4.7608   5.9626   8.0661
     8.7997   9.0896

          k = 0.2502 0.1447 0.0000 ( 10860 PWs)   bands (ev):

   -43.2066  -2.4750  -2.1750  -2.0286  -1.8995  -1.7928  -1.6388  -1.5536
    -1.4366  -1.2726  -1.1614  -0.9961  -0.7954  -0.7087  -0.7027  -0.6615
    -0.5011  -0.4629  -0.3871  -0.2763  -0.2472  -0.1456  -0.1451  -0.0301
     0.0138   0.0798   0.1615   0.1912   0.2354   0.3644   0.4766   0.7049
     0.7962   0.9296   1.8335   2.9917   3.9161   5.1619   6.4792   8.3343
     9.1140   9.4440

          k = 0.2502 0.2890 0.0000 ( 10819 PWs)   bands (ev):

   -43.2011  -2.1100  -1.9969  -1.9235  -1.8390  -1.7643  -1.7112  -1.5778
    -1.4052  -1.3828  -1.1884  -1.0900  -0.9531  -0.8773  -0.7695  -0.6562
    -0.5947  -0.4889  -0.3373  -0.2820  -0.2258  -0.0981   0.0098   0.1081
     0.1892   0.4020   0.4339   0.6719   0.6982   0.7380   0.9036   1.3418
     1.4620   1.9300   2.9147   3.9983   4.9476   6.3242   7.8300   9.1645
    10.0585  10.4851

          k = 0.2502-0.7216 0.0000 ( 10755 PWs)   bands (ev):

   -43.1956  -2.0025  -1.9789  -1.8227  -1.7434  -1.6364  -1.5552  -1.4840
    -1.3630  -1.3201  -1.2934  -1.1561  -1.0035  -0.9491  -0.8014  -0.6251
    -0.5755  -0.4816  -0.4063  -0.3520  -0.1441  -0.1198   0.0637   0.1308
     0.1673   0.2835   0.4677   0.7673   0.9086   0.9511   1.0646   3.3354
     3.5828   4.0826   4.8939   5.7867   6.8281   8.1820   8.9476   9.5244
     9.7561   9.8109

          k = 0.2502-0.5773 0.0000 ( 10783 PWs)   bands (ev):

   -43.1935  -2.0623  -1.8548  -1.7871  -1.7337  -1.6786  -1.5710  -1.4981
    -1.4646  -1.3228  -1.2521  -1.1830  -0.9731  -0.8849  -0.7776  -0.6566
    -0.5921  -0.4692  -0.2739  -0.2121  -0.1761  -0.0671   0.1150   0.2320
     0.3099   0.4248   0.5813   0.7224   0.7786   0.8836   0.9130   5.5094
     6.0323   6.1249   6.4574   6.8887   7.1081   7.4455   7.8865   8.3557
     8.6286   9.2298

          k = 0.2502-0.4329 0.0000 ( 10756 PWs)   bands (ev):

   -43.1956  -2.0025  -1.9789  -1.8227  -1.7434  -1.6364  -1.5552  -1.4840
    -1.3630  -1.3200  -1.2934  -1.1561  -1.0035  -0.9491  -0.8014  -0.6251
    -0.5755  -0.4816  -0.4063  -0.3520  -0.1441  -0.1198   0.0638   0.1308
     0.1672   0.2835   0.4678   0.7674   0.9086   0.9511   1.0646   3.3354
     3.5828   4.0826   4.8939   5.7867   6.8281   8.1820   8.9476   9.5245
     9.7561   9.8110

          k = 0.2502-0.2885 0.0000 ( 10818 PWs)   bands (ev):

   -43.2011  -2.1100  -1.9970  -1.9235  -1.8389  -1.7644  -1.7113  -1.5778
    -1.4052  -1.3828  -1.1884  -1.0899  -0.9531  -0.8772  -0.7695  -0.6562
    -0.5947  -0.4890  -0.3373  -0.2820  -0.2257  -0.0981   0.0098   0.1081
     0.1892   0.4020   0.4339   0.6720   0.6982   0.7380   0.9035   1.3418
     1.4620   1.9300   2.9147   3.9983   4.9476   6.3242   7.8300   9.1638
    10.0747  10.4422

          k = 0.3754-0.2162 0.0000 ( 10791 PWs)   bands (ev):

   -43.1989  -2.3549  -2.3144  -2.2043  -2.1263  -2.0518  -1.9090  -1.8697
    -1.7606  -1.4762  -1.1327  -0.9580  -0.8421  -0.8385  -0.6184  -0.5644
    -0.3409  -0.2073  -0.1068   0.1680   0.2369   0.4638   0.4744   0.6187
     0.6522   0.6680   0.7155   0.7754   0.7851   0.8262   0.9881   1.4810
     1.8504   2.3548   3.3618   4.4722   5.4483   6.8254   8.3154   8.8073
     8.9872   9.4142

          k = 0.3754-0.0718 0.0000 ( 10820 PWs)   bands (ev):

   -43.2012  -2.1100  -1.9970  -1.9235  -1.8389  -1.7644  -1.7113  -1.5778
    -1.4052  -1.3828  -1.1884  -1.0900  -0.9531  -0.8772  -0.7695  -0.6562
    -0.5948  -0.4890  -0.3373  -0.2820  -0.2258  -0.0981   0.0098   0.1081
     0.1892   0.4020   0.4339   0.6720   0.6983   0.7380   0.9036   1.3418
     1.4620   1.9300   2.9147   3.9983   4.9476   6.3242   7.8300   9.1642
    10.0642  10.4689

          k = 0.3754 0.0726 0.0000 ( 10819 PWs)   bands (ev):

   -43.2011  -2.1100  -1.9969  -1.9235  -1.8390  -1.7643  -1.7112  -1.5778
    -1.4052  -1.3828  -1.1884  -1.0900  -0.9531  -0.8772  -0.7695  -0.6562
    -0.5947  -0.4889  -0.3373  -0.2820  -0.2258  -0.0981   0.0098   0.1081
     0.1892   0.4020   0.4339   0.6719   0.6982   0.7380   0.9036   1.3418
     1.4620   1.9300   2.9147   3.9983   4.9476   6.3242   7.8300   9.1645
    10.0585  10.4851

          k = 0.3754 0.2170 0.0000 ( 10794 PWs)   bands (ev):

   -43.1989  -2.3549  -2.3144  -2.2044  -2.1263  -2.0518  -1.9090  -1.8696
    -1.7606  -1.4762  -1.1327  -0.9580  -0.8421  -0.8385  -0.6184  -0.5644
    -0.3410  -0.2073  -0.1068   0.1679   0.2368   0.4638   0.4744   0.6187
     0.6522   0.6681   0.7155   0.7754   0.7852   0.8263   0.9881   1.4810
     1.8504   2.3549   3.3618   4.4722   5.4483   6.8254   8.3154   8.8073
     8.9870   9.4144

          k = 0.3754-0.7937 0.0000 ( 10771 PWs)   bands (ev):

   -43.1957  -2.2954  -2.2224  -2.1458  -2.0176  -1.9395  -1.9012  -1.7528
    -1.6339  -1.5179  -1.2803  -1.1351  -0.8609  -0.8174  -0.6991  -0.5682
    -0.4592  -0.1766  -0.0883  -0.0203   0.2729   0.2931   0.4014   0.4846
     0.5813   0.6349   0.6544   0.8018   0.8777   0.9387   1.0648   3.4180
     3.6830   4.1249   4.8633   5.7140   6.5329   7.0670   7.6179   8.0461
     8.6395   8.9858

          k = 0.3754-0.6493 0.0000 ( 10768 PWs)   bands (ev):

   -43.1935  -2.0623  -1.8548  -1.7871  -1.7337  -1.6786  -1.5709  -1.4980
    -1.4646  -1.3227  -1.2521  -1.1830  -0.9731  -0.8848  -0.7776  -0.6566
    -0.5921  -0.4692  -0.2740  -0.2122  -0.1761  -0.0670   0.1151   0.2321
     0.3100   0.4248   0.5813   0.7225   0.7786   0.8836   0.9130   5.5094
     6.0323   6.1249   6.4573   6.8886   7.1087   7.4453   7.8864   8.3555
     8.6284   9.2297

          k = 0.3754-0.5049 0.0000 ( 10783 PWs)   bands (ev):

   -43.1935  -2.0623  -1.8548  -1.7871  -1.7337  -1.6786  -1.5710  -1.4981
    -1.4646  -1.3228  -1.2521  -1.1830  -0.9731  -0.8849  -0.7776  -0.6566
    -0.5921  -0.4692  -0.2739  -0.2121  -0.1761  -0.0671   0.1150   0.2320
     0.3099   0.4248   0.5813   0.7224   0.7786   0.8836   0.9130   5.5094
     6.0323   6.1249   6.4574   6.8887   7.1082   7.4455   7.8865   8.3557
     8.6286   9.2299

          k = 0.3754-0.3605 0.0000 ( 10760 PWs)   bands (ev):

   -43.1957  -2.2954  -2.2224  -2.1458  -2.0176  -1.9395  -1.9012  -1.7527
    -1.6338  -1.5178  -1.2803  -1.1351  -0.8609  -0.8173  -0.6991  -0.5682
    -0.4592  -0.1766  -0.0883  -0.0203   0.2729   0.2931   0.4014   0.4847
     0.5814   0.6349   0.6545   0.8018   0.8778   0.9388   1.0648   3.4180
     3.6830   4.1249   4.8633   5.7140   6.5329   7.0669   7.6182   8.0462
     8.6395   8.9859

          k =-0.5005 0.2882 0.0000 ( 10736 PWs)   bands (ev):

   -43.1956  -2.4859  -2.4307  -2.3428  -2.2541  -2.1423  -2.0510  -1.9917
    -1.9019  -1.5953  -1.1966  -1.0537  -0.9310  -0.9090  -0.6185  -0.4110
    -0.2331  -0.1486   0.1079   0.1895   0.4709   0.5794   0.6950   0.8217
     0.8958   0.9134   0.9580   0.9828   1.0260   1.0586   1.1017   3.5792
     3.9963   4.4786   4.8869   5.1866   5.4038   6.0742   6.9242   7.6745
     8.2410   8.7686

          k =-0.5005 0.4326 0.0000 ( 10762 PWs)   bands (ev):

   -43.1957  -2.2954  -2.2224  -2.1458  -2.0176  -1.9395  -1.9012  -1.7527
    -1.6338  -1.5178  -1.2803  -1.1351  -0.8609  -0.8173  -0.6991  -0.5682
    -0.4592  -0.1766  -0.0883  -0.0203   0.2729   0.2931   0.4014   0.4846
     0.5814   0.6349   0.6545   0.8018   0.8778   0.9388   1.0649   3.4180
     3.6830   4.1249   4.8633   5.7140   6.5329   7.0669   7.6182   8.0462
     8.6395   8.9859

          k =-0.5005 0.5770 0.0000 ( 10755 PWs)   bands (ev):

   -43.1956  -2.0025  -1.9789  -1.8227  -1.7434  -1.6364  -1.5552  -1.4840
    -1.3630  -1.3201  -1.2934  -1.1561  -1.0035  -0.9491  -0.8014  -0.6251
    -0.5755  -0.4816  -0.4063  -0.3520  -0.1441  -0.1198   0.0637   0.1308
     0.1673   0.2835   0.4677   0.7673   0.9086   0.9511   1.0646   3.3354
     3.5828   4.0826   4.8939   5.7867   6.8281   8.1820   8.9476   9.5245
     9.7561   9.8109

          k =-0.5005 0.7214 0.0000 ( 10771 PWs)   bands (ev):

   -43.1957  -2.2954  -2.2224  -2.1458  -2.0176  -1.9395  -1.9012  -1.7528
    -1.6339  -1.5179  -1.2804  -1.1351  -0.8609  -0.8174  -0.6991  -0.5682
    -0.4592  -0.1766  -0.0883  -0.0203   0.2729   0.2931   0.4014   0.4846
     0.5813   0.6349   0.6544   0.8018   0.8777   0.9388   1.0648   3.4180
     3.6830   4.1249   4.8633   5.7140   6.5329   7.0670   7.6179   8.0461
     8.6395   8.9858

          k =-0.5005-0.2893 0.0000 ( 10756 PWs)   bands (ev):

   -43.1957  -2.4860  -2.4307  -2.3429  -2.2541  -2.1423  -2.0511  -1.9917
    -1.9019  -1.5953  -1.1966  -1.0537  -0.9309  -0.9090  -0.6186  -0.4111
    -0.2332  -0.1486   0.1078   0.1895   0.4708   0.5795   0.6949   0.8216
     0.8958   0.9134   0.9579   0.9827   1.0259   1.0586   1.1018   3.5791
     3.9963   4.4787   4.8869   5.1866   5.4038   6.0744   6.9237   7.6745
     8.2411   8.7685

     the Fermi energy is     3.8100 ev

!    total energy              =    -520.61916907 Ry
     estimated scf accuracy    <          3.6E-09 Ry
     smearing contrib. (-TS)   =      -0.00207736 Ry
     internal energy E=F+TS    =    -520.61709171 Ry

     The total energy is F=E-TS. E is the sum of the following terms:
     one-electron contribution =   -6663.24323968 Ry
     hartree contribution      =    3382.82403178 Ry
     xc contribution           =    -137.61898040 Ry
     ewald contribution        =    2897.61575213 Ry
     DFT-D3 Dispersion         =      -0.19465553 Ry

     convergence has been achieved in   9 iterations

     negative rho (up, down):  8.946E-06 0.000E+00

     Forces acting on atoms (cartesian axes, Ry/au):

     atom    1 type  2   force =     0.00002031    0.00001131   -0.00047170
     atom    2 type  2   force =    -0.00004067   -0.00002376    0.00092290
     atom    3 type  2   force =     0.00003516    0.00002061   -0.00081215
     atom    4 type  2   force =    -0.00002584   -0.00001488    0.00058116
     atom    5 type  2   force =     0.00001902    0.00001120   -0.00043966
     atom    6 type  2   force =    -0.00000815   -0.00000495    0.00013747
     atom    7 type  1   force =     0.00000017    0.00000047    0.00008198
     The non-local contrib.  to forces
     atom    1 type  2   force =     0.00252052    0.00145687   -0.05766091
     atom    2 type  2   force =     0.00171118    0.00098895   -0.03912639
     atom    3 type  2   force =    -0.00017914   -0.00010324    0.00408880
     atom    4 type  2   force =     0.00021304    0.00012335   -0.00487820
     atom    5 type  2   force =    -0.00057649   -0.00033289    0.01319148
     atom    6 type  2   force =    -0.00202482   -0.00116983    0.04651988
     atom    7 type  1   force =    -0.00128093   -0.00073954    0.02934786
     The ionic contribution  to forces
     atom    1 type  2   force =     7.17724389    4.14906311 -164.13753504
     atom    2 type  2   force =     4.47374108    2.58621198 -102.31137710
     atom    3 type  2   force =     1.71070159    0.98893438  -39.12233034
     atom    4 type  2   force =    -1.04883919   -0.60632017   23.98605128
     atom    5 type  2   force =    -3.81013264   -2.20258777   87.13465538
     atom    6 type  2   force =    -6.51062877   -3.76370866  148.89127198
     atom    7 type  1   force =    -1.99208596   -1.15159287   45.55926384
     The local contribution  to forces
     atom    1 type  2   force =    -7.17927835   -4.15023917  164.18406475
     atom    2 type  2   force =    -4.47528497   -2.58710417  102.34667087
     atom    3 type  2   force =    -1.71046417   -0.98879690   39.11690317
     atom    4 type  2   force =     1.04859164    0.60617707  -23.98039719
     atom    5 type  2   force =     3.81058052    2.20284676  -87.14491765
     atom    6 type  2   force =     6.51241528    3.76474064 -148.93243190
     atom    7 type  1   force =     1.99330796    1.15229892  -45.58715540
     The core correction contribution to forces
     atom    1 type  2   force =    -0.00024902   -0.00014395    0.00569376
     atom    2 type  2   force =    -0.00002757   -0.00001594    0.00063306
     atom    3 type  2   force =     0.00000458    0.00000266   -0.00010497
     atom    4 type  2   force =    -0.00000363   -0.00000209    0.00008307
     atom    5 type  2   force =     0.00003223    0.00001866   -0.00073749
     atom    6 type  2   force =    -0.00000841   -0.00000483    0.00020636
     atom    7 type  1   force =     0.00000000    0.00000000    0.00000000
     The Hubbard contrib.    to forces
     atom    1 type  2   force =     0.00000000    0.00000000    0.00000000
     atom    2 type  2   force =     0.00000000    0.00000000    0.00000000
     atom    3 type  2   force =     0.00000000    0.00000000    0.00000000
     atom    4 type  2   force =     0.00000000    0.00000000    0.00000000
     atom    5 type  2   force =     0.00000000    0.00000000    0.00000000
     atom    6 type  2   force =     0.00000000    0.00000000    0.00000000
     atom    7 type  1   force =     0.00000000    0.00000000    0.00000000
     The SCF correction term to forces
     atom    1 type  2   force =     0.00000785    0.00000438   -0.00016915
     atom    2 type  2   force =    -0.00000504   -0.00000307    0.00011057
     atom    3 type  2   force =    -0.00000447   -0.00000275    0.00010041
     atom    4 type  2   force =    -0.00000003   -0.00000008    0.00000461
     atom    5 type  2   force =    -0.00000011   -0.00000024    0.00001024
     atom    6 type  2   force =     0.00000378    0.00000205   -0.00008236
     atom    7 type  1   force =     0.00000052    0.00000026   -0.00000981

     DFT-D3 dispersion contribution to forces:
     atom    1 type  2   force =    -0.00022431   -0.00012966    0.00512883
     atom    2 type  2   force =    -0.00017508   -0.00010123    0.00400582
     atom    3 type  2   force =    -0.00002295   -0.00001327    0.00052470
     atom    4 type  2   force =     0.00001262    0.00000730   -0.00028850
     atom    5 type  2   force =     0.00011579    0.00006695   -0.00264770
     atom    6 type  2   force =     0.00023507    0.00013595   -0.00535257
     atom    7 type  1   force =     0.00005886    0.00003396   -0.00137058

     Total force =     0.001515     Total SCF correction =     0.000241
     SCF correction compared to forces is large: reduce conv_thr to get better values


     Computing stress (Cartesian axis) and pressure


     negative rho (up, down):  8.946E-06 0.000E+00
          total   stress  (Ry/bohr**3)                   (kbar)     P=      -11.21
  -0.00008157   0.00000001  -0.00000069          -12.00        0.00       -0.10
   0.00000001  -0.00008159  -0.00000040            0.00      -12.00       -0.06
  -0.00000069  -0.00000040  -0.00006549           -0.10       -0.06       -9.63

     Energy error            =      1.1E-05 Ry
     Gradient error          =      9.2E-04 Ry/Bohr

     bfgs converged in  23 scf cycles and  22 bfgs steps
     (criteria: energy <  1.0E-04 Ry, force <  1.0E-03 Ry/Bohr)

     End of BFGS Geometry Optimization

     Final energy             =    -520.6191690711 Ry

     File ./Ag_mp-124_111_ontop_0/Ag_mp-124_111_ontop_0.bfgs deleted, as requested
Begin final coordinates

ATOMIC_POSITIONS (angstrom)
Ag            1.9496721550        0.5683659912       10.1248311885
Ag            1.8443622401        2.1836137609       12.5336152341
Ag            3.1934539819        1.2873764211       14.8979285559
Ag            1.6428009723        0.3909695309       17.1423051726
Ag            1.5392946690        2.0072677567       19.5089263757
Ag            2.8866910478        1.1100471632       21.9119203788
Li            2.7778357518        1.0471388620       24.4092898738
End final coordinates



     Writing all to output data dir ./Ag_mp-124_111_ontop_0/Ag_mp-124_111_ontop_0.save/

     init_run     :      6.22s CPU      6.68s WALL (       1 calls)
     electrons    :     84.60s CPU     95.60s WALL (      23 calls)
     update_pot   :     10.90s CPU     11.49s WALL (      22 calls)
     forces       :      8.10s CPU      8.69s WALL (      23 calls)
     force_dftd3  :      0.15s CPU      0.28s WALL (      23 calls)
     stress       :     25.42s CPU     26.16s WALL (      23 calls)
     stres_dftd3  :      0.20s CPU      0.30s WALL (      23 calls)

     Called by init_run:
     wfcinit      :      0.41s CPU      0.63s WALL (       1 calls)
     potinit      :      1.97s CPU      2.00s WALL (       1 calls)
     hinit0       :      3.76s CPU      3.95s WALL (       1 calls)

     Called by electrons:
     c_bands      :     69.53s CPU     76.11s WALL (     219 calls)
     sum_band     :     10.48s CPU     11.72s WALL (     219 calls)
     v_of_rho     :      2.16s CPU      2.94s WALL (     230 calls)
     newd         :      1.83s CPU      2.04s WALL (     230 calls)
     mix_rho      :      0.27s CPU      0.28s WALL (     219 calls)
     energy_dftd3 :      0.06s CPU      0.06s WALL (      23 calls)

     Called by c_bands:
     init_us_2    :      0.54s CPU      0.60s WALL (    4365 calls)
     init_us_2:cp :      0.54s CPU      0.59s WALL (    4365 calls)
     cegterg      :     62.80s CPU     66.49s WALL (    1971 calls)

     Called by *egterg:
     cdiaghg      :     16.33s CPU     16.52s WALL (    7767 calls)
     h_psi        :     36.88s CPU     39.80s WALL (    8082 calls)
     s_psi        :      1.73s CPU      1.78s WALL (    8082 calls)
     g_psi        :      0.15s CPU      0.15s WALL (    6102 calls)

     Called by h_psi:
     h_psi:calbec :      3.03s CPU      3.51s WALL (    8082 calls)
     vloc_psi     :     32.06s CPU     34.39s WALL (    8082 calls)
     add_vuspsi   :      1.65s CPU      1.77s WALL (    8082 calls)

     General routines
     calbec       :      5.92s CPU      6.67s WALL (   11088 calls)
     fft          :      6.49s CPU      7.81s WALL (    3553 calls)
     ffts         :      1.84s CPU      2.24s WALL (     449 calls)
     fftw         :     33.73s CPU     36.14s WALL (  497530 calls)
     interpolate  :      1.90s CPU      2.03s WALL (     230 calls)

     Parallel routines

     PWSCF        :   2m16.06s CPU   2m30.65s WALL


   This run was terminated on:   5:22:33  24Jul2025            

=------------------------------------------------------------------------------=
   JOB DONE.
=------------------------------------------------------------------------------=
