
     Program PWSCF v.7.2 starts on 24Jul2025 at  5:19:17 

     This program is part of the open-source Quantum ESPRESSO suite
     for quantum simulation of materials; please cite
         "P. Giannozzi et al., J. Phys.:Condens. Matter 21 395502 (2009);
         "P. Giannozzi et al., J. Phys.:Condens. Matter 29 465901 (2017);
         "P. Giannozzi et al., J. Chem. Phys. 152 154105 (2020);
          URL http://www.quantum-espresso.org", 
     in publications or presentations arising from this work. More details at
     http://www.quantum-espresso.org/quote

     Parallel version (MPI & OpenMP), running on     128 processor cores
     Number of MPI processes:               128
     Threads/MPI process:                     1

     MPI processes distributed on     2 nodes
     237280 MiB available memory on the printing compute node when the environment starts

     Reading input from Ag_mp-124_111_hollow_1.in

     Current dimensions of program PWSCF are:
     Max number of different atomic species (ntypx) = 10
     Max number of k-points (npk) =  40000
     Max angular momentum in pseudopotentials (lmaxx) =  4
     Message from routine iosys:
     restart disabled: needed files not found

     K-points division:     npool     =       4
     R & G space division:  proc/nbgrp/npool/nimage =      32
     Subspace diagonalization in iterative solution of the eigenvalue problem:
     a serial algorithm will be used


     Parallelization info
     --------------------
     sticks:   dense  smooth     PW     G-vecs:    dense   smooth      PW
     Min          32      14      4                 9247     2668     476
     Max          33      15      5                 9307     2719     521
     Sum        1039     451    151               296663    86301   15967

     Using Slab Decomposition



     bravais-lattice index     =            0
     lattice parameter (alat)  =       5.4844  a.u.
     unit-cell volume          =    1569.1543 (a.u.)^3
     number of atoms/cell      =            7
     number of atomic types    =            2
     number of electrons       =        69.00
     number of Kohn-Sham states=           42
     kinetic-energy cutoff     =      55.0000  Ry
     charge density cutoff     =     500.0000  Ry
     scf convergence threshold =      1.0E-06
     mixing beta               =       0.3000
     number of iterations used =            8  plain     mixing
     energy convergence thresh.=      1.0E-04
     force convergence thresh. =      1.0E-03
     Exchange-correlation= PBE
                           (   1   4   3   4   0   0   0)
     nstep                     =          500


     celldm(1)=   5.484398  celldm(2)=   0.000000  celldm(3)=   0.000000
     celldm(4)=   0.000000  celldm(5)=   0.000000  celldm(6)=   0.000000

     crystal axes: (cart. coord. in units of alat)
               a(1) = (   0.999045   0.000000   0.043685 )  
               a(2) = (   0.498568   0.865749   0.043685 )  
               a(3) = (   0.000000   0.000000  10.997690 )  

     reciprocal axes: (cart. coord. in units 2 pi/alat)
               b(1) = (  1.000956 -0.576430  0.000000 )  
               b(2) = (  0.000000  1.155069  0.000000 )  
               b(3) = ( -0.003976 -0.002298  0.090928 )  


     PseudoPot. # 1 for Li read from file:
     /home/ecastro/trabajo_final/pseudos/Li.pbe-s-rrkjus_psl.1.0.0.UPF
     MD5 check sum: 9f98d2529904d60b716d33989e9bc179
     Pseudo is Ultrasoft, Zval =  3.0
     Generated using &quot;atomic&quot; code by A. Dal Corso  v.6.3MaX
     Using radial grid of 1017 points,  4 beta functions with: 
                l(1) =   0
                l(2) =   0
                l(3) =   1
                l(4) =   1
     Q(r) pseudized with 0 coefficients 


     PseudoPot. # 2 for Ag read from file:
     /home/ecastro/trabajo_final/pseudos/Ag.pbe-n-rrkjus_psl.1.0.0.UPF
     MD5 check sum: 81cdf87bacf708300839c66ee23ce017
     Pseudo is Ultrasoft + core correction, Zval = 11.0
     Generated using &quot;atomic&quot; code by A. Dal Corso  v.6.2.2
     Using radial grid of 1237 points,  6 beta functions with: 
                l(1) =   0
                l(2) =   0
                l(3) =   1
                l(4) =   1
                l(5) =   2
                l(6) =   2
     Q(r) pseudized with 0 coefficients 


     atomic species   valence    mass     pseudopotential
        Li             3.00     6.94100     Li( 1.00)
        Ag            11.00   107.86820     Ag( 1.00)

     No symmetry found



   Cartesian axes

     site n.     atom                  positions (alat units)
         1           Ag  tau(   1) = (   0.6717609   0.1958243   3.4893255  )
         2           Ag  tau(   2) = (   0.6354667   0.7523774   4.3193443  )
         3           Ag  tau(   3) = (   1.0996503   0.4431812   5.1493632  )
         4           Ag  tau(   4) = (   0.5647885   0.1339850   5.9356968  )
         5           Ag  tau(   5) = (   0.5289793   0.6908197   6.7545940  )
         6           Ag  tau(   6) = (   0.9926572   0.3813309   7.5962214  )
         7           Li  tau(   7) = (   0.4633578   0.0753502   8.2853494  )

     --------------------------------------------
     DFT-D3 Dispersion Correction (no 3-body):
     --------------------------------------------
       Reference C6 values for interpolation: 

         atom   Coordination number   C6
         Li         0.000          2326.89
         Li         0.987           170.64
         Ag         0.000           853.49
         Ag         0.968           537.23

       Values used:

         atom   Coordination number  R0_AB[au]  C6      C8
         Ag         6.506            3.147    537.23  47741.54
         Ag         8.709            3.147    537.23  47741.54
         Ag         8.719            3.147    537.23  47741.54
         Ag         8.815            3.147    537.23  47741.54
         Ag         8.718            3.147    537.23  47741.54
         Ag         9.347            3.147    537.23  47741.54
         Li         8.018            3.303    170.64  12899.87

         Molecular C6 ( Ry / a.u.^6 ) =     22982.53


     number of k points=    34  Methfessel-Paxton smearing, width (Ry)=  0.0300
                       cart. coord. in units 2pi/alat
        k(    1) = (   0.0000000   0.0000000   0.0000000), wk =   0.0312500
        k(    2) = (   0.0000000   0.1443836   0.0000000), wk =   0.0625000
        k(    3) = (   0.0000000   0.2887672   0.0000000), wk =   0.0625000
        k(    4) = (   0.0000000   0.4331508   0.0000000), wk =   0.0625000
        k(    5) = (   0.0000000  -0.5775343   0.0000000), wk =   0.0312500
        k(    6) = (   0.1251194  -0.0720538   0.0000000), wk =   0.0625000
        k(    7) = (   0.1251194   0.0723298   0.0000000), wk =   0.0625000
        k(    8) = (   0.1251194   0.2167134   0.0000000), wk =   0.0625000
        k(    9) = (   0.1251194   0.3610970   0.0000000), wk =   0.0625000
        k(   10) = (   0.1251194  -0.6495881   0.0000000), wk =   0.0625000
        k(   11) = (   0.1251194  -0.5052045   0.0000000), wk =   0.0625000
        k(   12) = (   0.1251194  -0.3608209   0.0000000), wk =   0.0625000
        k(   13) = (   0.1251194  -0.2164373   0.0000000), wk =   0.0625000
        k(   14) = (   0.2502389  -0.1441075   0.0000000), wk =   0.0625000
        k(   15) = (   0.2502389   0.0002761   0.0000000), wk =   0.0625000
        k(   16) = (   0.2502389   0.1446597   0.0000000), wk =   0.0625000
        k(   17) = (   0.2502389   0.2890432   0.0000000), wk =   0.0625000
        k(   18) = (   0.2502389  -0.7216419   0.0000000), wk =   0.0625000
        k(   19) = (   0.2502389  -0.5772583   0.0000000), wk =   0.0625000
        k(   20) = (   0.2502389  -0.4328747   0.0000000), wk =   0.0625000
        k(   21) = (   0.2502389  -0.2884911   0.0000000), wk =   0.0625000
        k(   22) = (   0.3753583  -0.2161613   0.0000000), wk =   0.0625000
        k(   23) = (   0.3753583  -0.0717777   0.0000000), wk =   0.0625000
        k(   24) = (   0.3753583   0.0726059   0.0000000), wk =   0.0625000
        k(   25) = (   0.3753583   0.2169895   0.0000000), wk =   0.0625000
        k(   26) = (   0.3753583  -0.7936956   0.0000000), wk =   0.0625000
        k(   27) = (   0.3753583  -0.6493120   0.0000000), wk =   0.0625000
        k(   28) = (   0.3753583  -0.5049284   0.0000000), wk =   0.0625000
        k(   29) = (   0.3753583  -0.3605449   0.0000000), wk =   0.0625000
        k(   30) = (  -0.5004778   0.2882150   0.0000000), wk =   0.0312500
        k(   31) = (  -0.5004778   0.4325986   0.0000000), wk =   0.0625000
        k(   32) = (  -0.5004778   0.5769822   0.0000000), wk =   0.0625000
        k(   33) = (  -0.5004778   0.7213658   0.0000000), wk =   0.0625000
        k(   34) = (  -0.5004778  -0.2893193   0.0000000), wk =   0.0312500

     Dense  grid:   296663 G-vectors     FFT dimensions: (  40,  40, 432)

     Smooth grid:    86301 G-vectors     FFT dimensions: (  25,  25, 288)

     Estimated max dynamical RAM per process >      19.19 MB

     Estimated total dynamical RAM >       2.19 GB
     Cannot read rho : file not found

     Initial potential from superposition of free atoms

     starting charge      68.9930, renormalised to      69.0000

     negative rho (up, down):  2.887E-05 0.000E+00
     Message from routine qexsd_readschema :
     xml data file ./Ag_mp-124_111_hollow_1/Ag_mp-124_111_hollow_1.save/data-file-sch
     Cannot read wfcs: file not found
     Starting wfcs are   59 randomized atomic wfcs

     total cpu time spent up to now is        7.2 secs

     per-process dynamical memory:   175.0 Mb

     Self-consistent Calculation

     iteration #  1     ecut=    55.00 Ry     beta= 0.30
     Davidson diagonalization with overlap
     c_bands:  1 eigenvalues not converged
     c_bands:  2 eigenvalues not converged
     c_bands:  1 eigenvalues not converged
     c_bands:  1 eigenvalues not converged
     c_bands:  1 eigenvalues not converged
     c_bands:  2 eigenvalues not converged
     c_bands:  2 eigenvalues not converged
     c_bands:  1 eigenvalues not converged
     ethr =  1.00E-05,  avg # of iterations = 19.5

     negative rho (up, down):  2.286E-05 0.000E+00

     total cpu time spent up to now is        9.1 secs

     total energy              =    -520.43918677 Ry
     estimated scf accuracy    <       0.50219311 Ry

     iteration #  2     ecut=    55.00 Ry     beta= 0.30
     Davidson diagonalization with overlap
     ethr =  7.28E-04,  avg # of iterations =  8.8

     negative rho (up, down):  5.796E-05 0.000E+00

     total cpu time spent up to now is        9.8 secs

     total energy              =    -517.71521619 Ry
     estimated scf accuracy    <     168.82360721 Ry

     iteration #  3     ecut=    55.00 Ry     beta= 0.30
     Davidson diagonalization with overlap
     ethr =  7.28E-04,  avg # of iterations =  8.1

     negative rho (up, down):  6.047E-05 0.000E+00

     total cpu time spent up to now is       10.5 secs

     total energy              =    -520.61159283 Ry
     estimated scf accuracy    <       0.37330685 Ry

     iteration #  4     ecut=    55.00 Ry     beta= 0.30
     Davidson diagonalization with overlap
     ethr =  5.41E-04,  avg # of iterations =  2.4

     negative rho (up, down):  5.399E-05 0.000E+00

     total cpu time spent up to now is       10.9 secs

     total energy              =    -520.61061345 Ry
     estimated scf accuracy    <       0.69193991 Ry

     iteration #  5     ecut=    55.00 Ry     beta= 0.30
     Davidson diagonalization with overlap
     ethr =  5.41E-04,  avg # of iterations =  1.9

     negative rho (up, down):  4.940E-05 0.000E+00

     total cpu time spent up to now is       11.2 secs

     total energy              =    -520.62947635 Ry
     estimated scf accuracy    <       0.21642444 Ry

     iteration #  6     ecut=    55.00 Ry     beta= 0.30
     Davidson diagonalization with overlap
     ethr =  3.14E-04,  avg # of iterations =  1.4

     negative rho (up, down):  3.296E-05 0.000E+00

     total cpu time spent up to now is       11.5 secs

     total energy              =    -520.63678088 Ry
     estimated scf accuracy    <       0.02150630 Ry

     iteration #  7     ecut=    55.00 Ry     beta= 0.30
     Davidson diagonalization with overlap
     ethr =  3.12E-05,  avg # of iterations =  6.7

     negative rho (up, down):  2.417E-05 0.000E+00

     total cpu time spent up to now is       12.1 secs

     total energy              =    -520.63675823 Ry
     estimated scf accuracy    <       0.01788620 Ry

     iteration #  8     ecut=    55.00 Ry     beta= 0.30
     Davidson diagonalization with overlap
     ethr =  2.59E-05,  avg # of iterations =  1.4

     negative rho (up, down):  8.182E-06 0.000E+00

     total cpu time spent up to now is       12.4 secs

     total energy              =    -520.63687509 Ry
     estimated scf accuracy    <       0.00163456 Ry

     iteration #  9     ecut=    55.00 Ry     beta= 0.30
     Davidson diagonalization with overlap
     ethr =  2.37E-06,  avg # of iterations =  7.4

     negative rho (up, down):  6.251E-06 0.000E+00

     total cpu time spent up to now is       13.0 secs

     total energy              =    -520.63703229 Ry
     estimated scf accuracy    <       0.00009889 Ry

     iteration # 10     ecut=    55.00 Ry     beta= 0.30
     Davidson diagonalization with overlap
     ethr =  1.43E-07,  avg # of iterations =  2.2

     negative rho (up, down):  6.833E-06 0.000E+00

     total cpu time spent up to now is       13.4 secs

     total energy              =    -520.63704040 Ry
     estimated scf accuracy    <       0.00015559 Ry

     iteration # 11     ecut=    55.00 Ry     beta= 0.30
     Davidson diagonalization with overlap
     ethr =  1.43E-07,  avg # of iterations =  1.4

     negative rho (up, down):  7.514E-06 0.000E+00

     total cpu time spent up to now is       13.7 secs

     total energy              =    -520.63703714 Ry
     estimated scf accuracy    <       0.00005059 Ry

     iteration # 12     ecut=    55.00 Ry     beta= 0.30
     Davidson diagonalization with overlap
     ethr =  7.33E-08,  avg # of iterations =  1.8

     negative rho (up, down):  7.790E-06 0.000E+00

     total cpu time spent up to now is       14.0 secs

     total energy              =    -520.63704140 Ry
     estimated scf accuracy    <       0.00000271 Ry

     iteration # 13     ecut=    55.00 Ry     beta= 0.30
     Davidson diagonalization with overlap
     ethr =  3.93E-09,  avg # of iterations =  2.9

     negative rho (up, down):  8.247E-06 0.000E+00

     total cpu time spent up to now is       14.4 secs

     End of self-consistent calculation

          k = 0.0000 0.0000 0.0000 ( 10919 PWs)   bands (ev):

   -42.7811  -3.6233  -3.1527  -2.5802  -2.3592  -2.2880  -2.2037  -0.9948
    -0.8359  -0.8222  -0.8222  -0.8027  -0.7517  -0.7516  -0.7330  -0.7330
    -0.6610  -0.6609  -0.6396  -0.6396  -0.5477  -0.5477  -0.1622   0.1499
     0.1500   0.1969   0.1970   0.2346   0.2347   0.4665   0.4666   0.7191
     0.7192   0.9215   0.9216   1.0209   2.2445   3.4836   3.9409   7.1888
     7.7717   8.1268

          k = 0.0000 0.1444 0.0000 ( 10876 PWs)   bands (ev):

   -42.7778  -3.2123  -2.7604  -2.2103  -2.1051  -2.0064  -1.8947  -1.1511
    -1.0379  -0.9492  -0.8832  -0.8606  -0.8118  -0.6937  -0.6568  -0.6296
    -0.5875  -0.5340  -0.5281  -0.4975  -0.4780  -0.4459  -0.3441  -0.1985
    -0.0030   0.0468   0.1016   0.1546   0.2370   0.2885   0.4624   0.4806
     0.7323   0.9394   0.9498   1.8818   2.9541   4.0294   4.7701   7.5267
     8.1131   8.4233

          k = 0.0000 0.2888 0.0000 ( 10871 PWs)   bands (ev):

   -42.7700  -2.3327  -2.0643  -1.9050  -1.8171  -1.6900  -1.5800  -1.4603
    -1.3649  -1.1798  -1.0670  -0.9246  -0.7595  -0.6439  -0.5972  -0.5609
    -0.4608  -0.3813  -0.3617  -0.2280  -0.1501  -0.0881  -0.0629   0.0485
     0.0790   0.1067   0.2270   0.2476   0.2921   0.4215   0.5327   0.7540
     0.8195   0.9753   1.8312   3.0518   4.1468   5.3361   6.5929   8.4795
     9.0978   9.4038

          k = 0.0000 0.4332 0.0000 ( 10791 PWs)   bands (ev):

   -42.7620  -2.2242  -2.1818  -2.0721  -2.0320  -1.9550  -1.8543  -1.8079
    -1.6925  -1.4155  -1.0852  -0.9061  -0.7798  -0.6971  -0.5505  -0.4669
    -0.2678  -0.1485  -0.0567   0.2207   0.2892   0.5090   0.5381   0.7026
     0.7159   0.7171   0.7950   0.8177   0.8556   0.8984   1.0346   1.5420
     1.8944   2.3613   3.3355   4.5159   5.6723   7.0032   8.3292   8.7775
     9.1926   9.8002

          k = 0.0000-0.5775 0.0000 ( 10736 PWs)   bands (ev):

   -42.7587  -2.3534  -2.2990  -2.2088  -2.1628  -2.0438  -1.9808  -1.9495
    -1.8368  -1.5420  -1.1537  -0.9894  -0.8720  -0.7670  -0.5224  -0.3625
    -0.1786  -0.0718   0.1436   0.2335   0.5268   0.6271   0.7324   0.8849
     0.9845   0.9976   1.0104   1.0197   1.0994   1.1236   1.1723   3.6514
     4.1037   4.5799   4.9362   5.1659   5.3547   5.5021   7.6240   8.0443
     8.5316   8.8828

          k = 0.1251-0.0721 0.0000 ( 10876 PWs)   bands (ev):

   -42.7778  -3.2123  -2.7604  -2.2103  -2.1051  -2.0064  -1.8947  -1.1511
    -1.0379  -0.9492  -0.8832  -0.8606  -0.8118  -0.6937  -0.6568  -0.6296
    -0.5875  -0.5340  -0.5281  -0.4975  -0.4780  -0.4459  -0.3441  -0.1985
    -0.0030   0.0468   0.1016   0.1546   0.2370   0.2885   0.4624   0.4806
     0.7323   0.9394   0.9498   1.8818   2.9541   4.0294   4.7701   7.5267
     8.1129   8.4233

          k = 0.1251 0.0723 0.0000 ( 10875 PWs)   bands (ev):

   -42.7778  -3.2123  -2.7604  -2.2102  -2.1051  -2.0064  -1.8947  -1.1511
    -1.0379  -0.9492  -0.8833  -0.8605  -0.8118  -0.6937  -0.6568  -0.6296
    -0.5875  -0.5340  -0.5282  -0.4975  -0.4780  -0.4460  -0.3442  -0.1986
    -0.0030   0.0467   0.1016   0.1547   0.2370   0.2886   0.4624   0.4807
     0.7324   0.9394   0.9496   1.8816   2.9540   4.0295   4.7701   7.5271
     8.1082   8.4321

          k = 0.1251 0.2167 0.0000 ( 10868 PWs)   bands (ev):

   -42.7723  -2.5047  -2.1525  -1.7156  -1.7008  -1.6261  -1.5074  -1.3259
    -1.2530  -1.2116  -1.1389  -1.0081  -0.9646  -0.8418  -0.8183  -0.6207
    -0.6114  -0.5227  -0.4714  -0.4000  -0.3459  -0.1875  -0.1109  -0.0867
    -0.0003   0.0776   0.1918   0.2519   0.3734   0.3878   0.4662   0.6463
     0.7947   0.8604   1.6124   2.7352   3.8044   4.9439   6.0692   8.1798
     8.7633   9.0894

          k = 0.1251 0.3611 0.0000 ( 10820 PWs)   bands (ev):

   -42.7644  -1.9720  -1.8599  -1.7974  -1.7362  -1.6654  -1.6083  -1.5129
    -1.3484  -1.3002  -1.1313  -0.9959  -0.8920  -0.7710  -0.6898  -0.5846
    -0.5304  -0.4582  -0.2966  -0.2382  -0.1677  -0.0474   0.0774   0.1672
     0.2397   0.4500   0.4904   0.7315   0.7546   0.8066   0.9601   1.4081
     1.5160   1.9327   2.9000   4.0849   5.1939   6.4827   7.9602   9.3416
    10.0969  10.3807

          k = 0.1251-0.6496 0.0000 ( 10762 PWs)   bands (ev):

   -42.7587  -2.1576  -2.0904  -2.0155  -1.9215  -1.8496  -1.7981  -1.7137
    -1.5778  -1.4546  -1.2088  -1.0234  -0.8189  -0.7294  -0.6271  -0.4892
    -0.3959  -0.1190  -0.0366   0.0379   0.2950   0.3474   0.4592   0.5390
     0.6352   0.6839   0.7331   0.8419   0.9500   0.9934   1.1290   3.4852
     3.7348   4.1486   4.8444   5.6709   6.5495   7.1538   7.8908   8.2380
     8.7187   9.3005

          k = 0.1251-0.5052 0.0000 ( 10760 PWs)   bands (ev):

   -42.7587  -2.1576  -2.0904  -2.0154  -1.9215  -1.8496  -1.7981  -1.7137
    -1.5778  -1.4546  -1.2088  -1.0235  -0.8189  -0.7294  -0.6271  -0.4891
    -0.3961  -0.1190  -0.0365   0.0378   0.2949   0.3475   0.4592   0.5390
     0.6352   0.6839   0.7331   0.8419   0.9500   0.9934   1.1290   3.4852
     3.7349   4.1487   4.8446   5.6710   6.5496   7.1538   7.8906   8.2375
     8.7184   9.3006

          k = 0.1251-0.3608 0.0000 ( 10818 PWs)   bands (ev):

   -42.7644  -1.9720  -1.8599  -1.7974  -1.7362  -1.6654  -1.6083  -1.5128
    -1.3483  -1.3002  -1.1312  -0.9958  -0.8918  -0.7709  -0.6898  -0.5847
    -0.5304  -0.4584  -0.2967  -0.2384  -0.1677  -0.0473   0.0773   0.1671
     0.2398   0.4500   0.4904   0.7315   0.7545   0.8066   0.9600   1.4082
     1.5160   1.9329   2.9002   4.0853   5.1939   6.4824   7.9601   9.3407
    10.1101  10.3652

          k = 0.1251-0.2164 0.0000 ( 10863 PWs)   bands (ev):

   -42.7723  -2.5047  -2.1525  -1.7156  -1.7009  -1.6261  -1.5074  -1.3259
    -1.2529  -1.2116  -1.1389  -1.0081  -0.9645  -0.8418  -0.8182  -0.6207
    -0.6114  -0.5227  -0.4715  -0.3999  -0.3460  -0.1874  -0.1111  -0.0866
    -0.0002   0.0778   0.1920   0.2518   0.3734   0.3879   0.4662   0.6463
     0.7948   0.8604   1.6126   2.7356   3.8045   4.9436   6.0691   8.1782
     8.7821   9.0557

          k = 0.2502-0.1441 0.0000 ( 10871 PWs)   bands (ev):

   -42.7700  -2.3327  -2.0643  -1.9050  -1.8171  -1.6900  -1.5800  -1.4603
    -1.3649  -1.1798  -1.0670  -0.9246  -0.7595  -0.6439  -0.5972  -0.5609
    -0.4608  -0.3813  -0.3617  -0.2280  -0.1501  -0.0881  -0.0629   0.0485
     0.0790   0.1067   0.2270   0.2476   0.2921   0.4215   0.5327   0.7540
     0.8195   0.9753   1.8312   3.0518   4.1468   5.3361   6.5929   8.4795
     9.0979   9.4038

          k = 0.2502 0.0003 0.0000 ( 10868 PWs)   bands (ev):

   -42.7723  -2.5047  -2.1525  -1.7156  -1.7008  -1.6261  -1.5074  -1.3259
    -1.2530  -1.2116  -1.1389  -1.0081  -0.9646  -0.8418  -0.8183  -0.6207
    -0.6114  -0.5227  -0.4714  -0.4000  -0.3459  -0.1875  -0.1109  -0.0867
    -0.0003   0.0776   0.1918   0.2519   0.3734   0.3878   0.4662   0.6463
     0.7947   0.8604   1.6124   2.7352   3.8044   4.9439   6.0692   8.1798
     8.7633   9.0894

          k = 0.2502 0.1447 0.0000 ( 10860 PWs)   bands (ev):

   -42.7700  -2.3327  -2.0642  -1.9049  -1.8169  -1.6900  -1.5799  -1.4603
    -1.3649  -1.1798  -1.0670  -0.9247  -0.7595  -0.6439  -0.5972  -0.5609
    -0.4609  -0.3813  -0.3616  -0.2280  -0.1500  -0.0881  -0.0628   0.0486
     0.0790   0.1067   0.2271   0.2476   0.2922   0.4216   0.5328   0.7542
     0.8194   0.9753   1.8309   3.0512   4.1468   5.3364   6.5928   8.4814
     9.0786   9.4403

          k = 0.2502 0.2890 0.0000 ( 10819 PWs)   bands (ev):

   -42.7644  -1.9720  -1.8599  -1.7974  -1.7362  -1.6653  -1.6083  -1.5127
    -1.3483  -1.3002  -1.1312  -0.9959  -0.8919  -0.7709  -0.6898  -0.5846
    -0.5304  -0.4583  -0.2967  -0.2382  -0.1677  -0.0474   0.0773   0.1672
     0.2397   0.4499   0.4905   0.7314   0.7545   0.8065   0.9601   1.4081
     1.5159   1.9327   2.8997   4.0845   5.1938   6.4829   7.9599   9.3431
    10.0699  10.4595

          k = 0.2502-0.7216 0.0000 ( 10755 PWs)   bands (ev):

   -42.7587  -1.8670  -1.8370  -1.7001  -1.6510  -1.5305  -1.4410  -1.3804
    -1.2584  -1.2357  -1.2171  -1.0645  -0.9535  -0.8620  -0.7512  -0.5903
    -0.5501  -0.4446  -0.3692  -0.2798  -0.1032  -0.0580   0.1019   0.1612
     0.2458   0.3365   0.5071   0.8047   0.9703   1.0102   1.1300   3.4024
     3.6107   4.0760   4.9049   5.9159   7.0618   8.2921   8.7540   9.6651
     9.8514  10.0110

          k = 0.2502-0.5773 0.0000 ( 10783 PWs)   bands (ev):

   -42.7565  -1.9229  -1.7139  -1.6809  -1.6088  -1.5487  -1.4732  -1.4109
    -1.3690  -1.2143  -1.1640  -1.0919  -0.9439  -0.8206  -0.7938  -0.5950
    -0.5005  -0.4100  -0.2895  -0.1610  -0.1056  -0.0271   0.1756   0.2912
     0.3596   0.4281   0.6562   0.7774   0.8355   0.9349   0.9746   5.4851
     6.1141   6.1625   6.3470   6.6924   7.1236   7.6871   8.0242   8.4517
     9.0001   9.3670

          k = 0.2502-0.4329 0.0000 ( 10756 PWs)   bands (ev):

   -42.7587  -1.8670  -1.8370  -1.7002  -1.6509  -1.5305  -1.4410  -1.3804
    -1.2584  -1.2356  -1.2170  -1.0644  -0.9536  -0.8620  -0.7514  -0.5903
    -0.5502  -0.4449  -0.3692  -0.2798  -0.1032  -0.0580   0.1018   0.1614
     0.2458   0.3365   0.5072   0.8048   0.9703   1.0102   1.1300   3.4025
     3.6108   4.0763   4.9055   5.9166   7.0618   8.2907   8.7530   9.6651
     9.8515  10.0110

          k = 0.2502-0.2885 0.0000 ( 10818 PWs)   bands (ev):

   -42.7644  -1.9720  -1.8599  -1.7974  -1.7362  -1.6654  -1.6083  -1.5128
    -1.3483  -1.3002  -1.1312  -0.9958  -0.8918  -0.7709  -0.6898  -0.5847
    -0.5304  -0.4584  -0.2967  -0.2384  -0.1677  -0.0473   0.0773   0.1671
     0.2398   0.4500   0.4904   0.7315   0.7545   0.8066   0.9600   1.4082
     1.5160   1.9329   2.9002   4.0853   5.1939   6.4824   7.9601   9.3407
    10.1101  10.3649

          k = 0.3754-0.2162 0.0000 ( 10791 PWs)   bands (ev):

   -42.7620  -2.2242  -2.1818  -2.0721  -2.0320  -1.9550  -1.8543  -1.8079
    -1.6925  -1.4155  -1.0852  -0.9061  -0.7798  -0.6971  -0.5505  -0.4669
    -0.2678  -0.1485  -0.0567   0.2207   0.2892   0.5090   0.5381   0.7026
     0.7159   0.7171   0.7950   0.8177   0.8556   0.8984   1.0346   1.5420
     1.8944   2.3613   3.3355   4.5159   5.6723   7.0032   8.3292   8.7775
     9.1926   9.8002

          k = 0.3754-0.0718 0.0000 ( 10820 PWs)   bands (ev):

   -42.7644  -1.9720  -1.8599  -1.7974  -1.7362  -1.6654  -1.6083  -1.5129
    -1.3484  -1.3002  -1.1313  -0.9959  -0.8920  -0.7710  -0.6898  -0.5846
    -0.5304  -0.4582  -0.2966  -0.2382  -0.1677  -0.0474   0.0774   0.1672
     0.2397   0.4500   0.4904   0.7315   0.7546   0.8066   0.9601   1.4081
     1.5160   1.9327   2.9000   4.0849   5.1939   6.4827   7.9602   9.3416
    10.0969  10.3803

          k = 0.3754 0.0726 0.0000 ( 10819 PWs)   bands (ev):

   -42.7644  -1.9720  -1.8599  -1.7974  -1.7362  -1.6653  -1.6083  -1.5127
    -1.3483  -1.3002  -1.1312  -0.9959  -0.8919  -0.7709  -0.6898  -0.5846
    -0.5304  -0.4583  -0.2967  -0.2382  -0.1677  -0.0474   0.0773   0.1672
     0.2397   0.4499   0.4905   0.7314   0.7545   0.8065   0.9601   1.4081
     1.5159   1.9327   2.8997   4.0845   5.1938   6.4829   7.9599   9.3431
    10.0699  10.4596

          k = 0.3754 0.2170 0.0000 ( 10794 PWs)   bands (ev):

   -42.7620  -2.2242  -2.1818  -2.0722  -2.0319  -1.9549  -1.8540  -1.8080
    -1.6924  -1.4156  -1.0852  -0.9061  -0.7799  -0.6970  -0.5507  -0.4668
    -0.2679  -0.1484  -0.0568   0.2207   0.2890   0.5091   0.5381   0.7026
     0.7159   0.7170   0.7951   0.8178   0.8556   0.8984   1.0346   1.5421
     1.8945   2.3612   3.3348   4.5145   5.6718   7.0037   8.3277   8.7778
     9.1938   9.8029

          k = 0.3754-0.7937 0.0000 ( 10771 PWs)   bands (ev):

   -42.7587  -2.1577  -2.0903  -2.0155  -1.9215  -1.8497  -1.7981  -1.7135
    -1.5779  -1.4547  -1.2088  -1.0234  -0.8188  -0.7294  -0.6272  -0.4893
    -0.3960  -0.1190  -0.0364   0.0378   0.2949   0.3475   0.4591   0.5389
     0.6351   0.6838   0.7331   0.8419   0.9499   0.9934   1.1290   3.4857
     3.7352   4.1485   4.8431   5.6686   6.5479   7.1532   7.8930   8.2393
     8.7186   9.3018

          k = 0.3754-0.6493 0.0000 ( 10768 PWs)   bands (ev):

   -42.7564  -1.9229  -1.7139  -1.6809  -1.6088  -1.5487  -1.4732  -1.4108
    -1.3689  -1.2143  -1.1639  -1.0919  -0.9437  -0.8206  -0.7935  -0.5950
    -0.5005  -0.4100  -0.2894  -0.1611  -0.1056  -0.0271   0.1757   0.2913
     0.3596   0.4280   0.6562   0.7775   0.8355   0.9349   0.9747   5.4855
     6.1137   6.1621   6.3459   6.6915   7.1233   7.6874   8.0253   8.4508
     9.0013   9.3665

          k = 0.3754-0.5049 0.0000 ( 10783 PWs)   bands (ev):

   -42.7565  -1.9229  -1.7139  -1.6809  -1.6088  -1.5487  -1.4732  -1.4109
    -1.3690  -1.2143  -1.1640  -1.0919  -0.9439  -0.8206  -0.7938  -0.5950
    -0.5005  -0.4100  -0.2895  -0.1610  -0.1056  -0.0271   0.1756   0.2912
     0.3596   0.4281   0.6562   0.7774   0.8355   0.9349   0.9746   5.4851
     6.1141   6.1625   6.3470   6.6924   7.1236   7.6871   8.0242   8.4517
     9.0001   9.3662

          k = 0.3754-0.3605 0.0000 ( 10760 PWs)   bands (ev):

   -42.7587  -2.1576  -2.0904  -2.0154  -1.9215  -1.8496  -1.7981  -1.7137
    -1.5778  -1.4546  -1.2088  -1.0235  -0.8189  -0.7294  -0.6271  -0.4891
    -0.3961  -0.1190  -0.0365   0.0378   0.2949   0.3475   0.4592   0.5390
     0.6352   0.6839   0.7331   0.8419   0.9500   0.9934   1.1290   3.4852
     3.7349   4.1487   4.8446   5.6710   6.5496   7.1538   7.8906   8.2375
     8.7184   9.3005

          k =-0.5005 0.2882 0.0000 ( 10736 PWs)   bands (ev):

   -42.7587  -2.3534  -2.2990  -2.2088  -2.1628  -2.0439  -1.9808  -1.9495
    -1.8368  -1.5420  -1.1537  -0.9894  -0.8720  -0.7670  -0.5224  -0.3625
    -0.1786  -0.0718   0.1436   0.2335   0.5268   0.6271   0.7324   0.8849
     0.9845   0.9976   1.0104   1.0197   1.0994   1.1236   1.1723   3.6514
     4.1037   4.5799   4.9362   5.1659   5.3547   5.5021   7.6240   8.0443
     8.5317   8.8827

          k =-0.5005 0.4326 0.0000 ( 10762 PWs)   bands (ev):

   -42.7587  -2.1576  -2.0904  -2.0155  -1.9215  -1.8496  -1.7981  -1.7137
    -1.5778  -1.4546  -1.2088  -1.0234  -0.8189  -0.7294  -0.6271  -0.4892
    -0.3959  -0.1190  -0.0366   0.0379   0.2950   0.3474   0.4592   0.5390
     0.6352   0.6839   0.7331   0.8419   0.9500   0.9934   1.1290   3.4852
     3.7348   4.1486   4.8444   5.6709   6.5495   7.1538   7.8908   8.2380
     8.7187   9.3005

          k =-0.5005 0.5770 0.0000 ( 10755 PWs)   bands (ev):

   -42.7587  -1.8670  -1.8370  -1.7001  -1.6510  -1.5305  -1.4410  -1.3804
    -1.2584  -1.2357  -1.2171  -1.0645  -0.9535  -0.8620  -0.7512  -0.5903
    -0.5501  -0.4446  -0.3692  -0.2798  -0.1032  -0.0580   0.1019   0.1612
     0.2458   0.3365   0.5071   0.8047   0.9703   1.0102   1.1300   3.4024
     3.6107   4.0760   4.9049   5.9159   7.0618   8.2921   8.7540   9.6652
     9.8524  10.0111

          k =-0.5005 0.7214 0.0000 ( 10771 PWs)   bands (ev):

   -42.7587  -2.1577  -2.0903  -2.0155  -1.9215  -1.8497  -1.7981  -1.7135
    -1.5779  -1.4547  -1.2088  -1.0234  -0.8188  -0.7294  -0.6272  -0.4893
    -0.3960  -0.1190  -0.0364   0.0378   0.2949   0.3475   0.4591   0.5389
     0.6351   0.6838   0.7331   0.8419   0.9499   0.9934   1.1290   3.4857
     3.7352   4.1485   4.8431   5.6686   6.5479   7.1532   7.8930   8.2394
     8.7187   9.3017

          k =-0.5005-0.2893 0.0000 ( 10756 PWs)   bands (ev):

   -42.7587  -2.3534  -2.2990  -2.2088  -2.1627  -2.0439  -1.9806  -1.9496
    -1.8369  -1.5422  -1.1537  -0.9893  -0.8719  -0.7670  -0.5224  -0.3629
    -0.1785  -0.0719   0.1433   0.2336   0.5267   0.6272   0.7323   0.8849
     0.9845   0.9975   1.0104   1.0196   1.0993   1.1236   1.1724   3.6531
     4.1055   4.5804   4.9341   5.1612   5.3516   5.5014   7.6252   8.0472
     8.5341   8.8828

     the Fermi energy is     3.9144 ev

!    total energy              =    -520.63704140 Ry
     estimated scf accuracy    <       0.00000055 Ry
     smearing contrib. (-TS)   =      -0.00214234 Ry
     internal energy E=F+TS    =    -520.63489906 Ry

     The total energy is F=E-TS. E is the sum of the following terms:
     one-electron contribution =   -6607.36159555 Ry
     hartree contribution      =    3355.10251995 Ry
     xc contribution           =    -137.62787070 Ry
     ewald contribution        =    2869.44480095 Ry
     DFT-D3 Dispersion         =      -0.19275371 Ry

     convergence has been achieved in  13 iterations

     negative rho (up, down):  8.247E-06 0.000E+00

     Forces acting on atoms (cartesian axes, Ry/au):

     atom    1 type  2   force =    -0.00001740   -0.00000975    0.00041628
     atom    2 type  2   force =    -0.00026317   -0.00015142    0.00601293
     atom    3 type  2   force =     0.00005783    0.00003397   -0.00132297
     atom    4 type  2   force =     0.00016118    0.00009305   -0.00364187
     atom    5 type  2   force =    -0.00012505   -0.00007307    0.00284402
     atom    6 type  2   force =     0.00022150    0.00012810   -0.00330638
     atom    7 type  1   force =    -0.00003489   -0.00002088   -0.00100202
     The non-local contrib.  to forces
     atom    1 type  2   force =     0.00269548    0.00155846   -0.06161244
     atom    2 type  2   force =     0.00145727    0.00084117   -0.03332193
     atom    3 type  2   force =    -0.00005167   -0.00002837    0.00125332
     atom    4 type  2   force =     0.00013454    0.00007721   -0.00300361
     atom    5 type  2   force =    -0.00052149   -0.00030131    0.01135447
     atom    6 type  2   force =    -0.00035911   -0.00020830    0.00490432
     atom    7 type  1   force =    -0.00225539   -0.00130543    0.05104513
     The ionic contribution  to forces
     atom    1 type  2   force =     7.13320120    4.12360529 -163.13055664
     atom    2 type  2   force =     4.43215545    2.56216797 -101.35981947
     atom    3 type  2   force =     1.71118165    0.98921053  -39.13334402
     atom    4 type  2   force =    -1.01149134   -0.58472708   23.13193401
     atom    5 type  2   force =    -3.76000427   -2.17360928   85.98845726
     atom    6 type  2   force =    -6.44175027   -3.72388653  147.34406685
     atom    7 type  1   force =    -2.06329242   -1.19276091   47.15926202
     The local contribution  to forces
     atom    1 type  2   force =    -7.13546646   -4.12491445  163.18235114
     atom    2 type  2   force =    -4.43375622   -2.56309310  101.39643751
     atom    3 type  2   force =    -1.71110762   -0.98916892   39.13161195
     atom    4 type  2   force =     1.01146559    0.58470919  -23.13140440
     atom    5 type  2   force =     3.76017362    2.17370727  -85.99179613
     atom    6 type  2   force =     6.44229693    3.72420183 -147.35142300
     atom    7 type  1   force =     2.06543589    1.19400246  -47.20944906
     The core correction contribution to forces
     atom    1 type  2   force =    -0.00024531   -0.00014182    0.00561132
     atom    2 type  2   force =     0.00000888    0.00000511   -0.00020319
     atom    3 type  2   force =    -0.00000060   -0.00000040    0.00001700
     atom    4 type  2   force =    -0.00002703   -0.00001579    0.00061732
     atom    5 type  2   force =     0.00004534    0.00002616   -0.00104436
     atom    6 type  2   force =    -0.00013461   -0.00007784    0.00286143
     atom    7 type  1   force =     0.00000000    0.00000000    0.00000000
     The Hubbard contrib.    to forces
     atom    1 type  2   force =     0.00000000    0.00000000    0.00000000
     atom    2 type  2   force =     0.00000000    0.00000000    0.00000000
     atom    3 type  2   force =     0.00000000    0.00000000    0.00000000
     atom    4 type  2   force =     0.00000000    0.00000000    0.00000000
     atom    5 type  2   force =     0.00000000    0.00000000    0.00000000
     atom    6 type  2   force =     0.00000000    0.00000000    0.00000000
     atom    7 type  1   force =     0.00000000    0.00000000    0.00000000
     The SCF correction term to forces
     atom    1 type  2   force =     0.00002340    0.00001350   -0.00054032
     atom    2 type  2   force =     0.00003655    0.00002311   -0.00085727
     atom    3 type  2   force =     0.00006618    0.00003879   -0.00155148
     atom    4 type  2   force =     0.00008619    0.00005369   -0.00194202
     atom    5 type  2   force =     0.00008706    0.00004960   -0.00196143
     atom    6 type  2   force =    -0.00001604   -0.00000753    0.00039034
     atom    7 type  1   force =    -0.00002080   -0.00001330    0.00048747

     DFT-D3 dispersion contribution to forces:
     atom    1 type  2   force =    -0.00021848   -0.00012630    0.00499639
     atom    2 type  2   force =    -0.00015787   -0.00009126    0.00361043
     atom    3 type  2   force =    -0.00002289   -0.00001323    0.00052341
     atom    4 type  2   force =     0.00000045    0.00000025   -0.00001000
     atom    5 type  2   force =     0.00010192    0.00005893   -0.00233264
     atom    6 type  2   force =     0.00019183    0.00011089   -0.00427316
     atom    7 type  1   force =     0.00010505    0.00006073   -0.00251442

     Total force =     0.008461     Total SCF correction =     0.003387
     SCF correction compared to forces is large: reduce conv_thr to get better values


     Computing stress (Cartesian axis) and pressure


     negative rho (up, down):  8.247E-06 0.000E+00
          total   stress  (Ry/bohr**3)                   (kbar)     P=      -12.39
  -0.00006605   0.00000007   0.00000219           -9.72        0.01        0.32
   0.00000007  -0.00006614   0.00000126            0.01       -9.73        0.19
   0.00000219   0.00000126  -0.00012044            0.32        0.19      -17.72


     BFGS Geometry Optimization
     Energy error            =      0.0E+00 Ry
     Gradient error          =      6.0E-03 Ry/Bohr

     number of scf cycles    =   1
     number of bfgs steps    =   0

     energy             new  =    -520.6370413962 Ry

     new trust radius        =       0.0060205892 bohr
     new conv_thr            =       0.0000010000 Ry


ATOMIC_POSITIONS (angstrom)
Ag            1.9495874895        0.5683195873       10.1270042797
Ag            1.8441237707        2.1834833729       12.5388617312
Ag            3.1914557164        1.2862266156       14.9438755764
Ag            1.6392248830        0.3889030133       17.2247603139
Ag            1.5351470865        2.0048709100       19.6048108427
Ag            2.8810250539        1.1067731741       22.0441423080
Li            1.3447469979        0.2186716066       24.0453617275



     Writing config-only to output data dir ./Ag_mp-124_111_hollow_1/Ag_mp-124_111_hollow_1.save/
     NEW-OLD atomic charge density approx. for the potential

     negative rho (up, down):  8.298E-06 0.000E+00

     total cpu time spent up to now is       16.7 secs

     per-process dynamical memory:   187.5 Mb

     Self-consistent Calculation

     iteration #  1     ecut=    55.00 Ry     beta= 0.30
     Davidson diagonalization with overlap
     ethr =  1.00E-06,  avg # of iterations =  3.0

     negative rho (up, down):  8.299E-06 0.000E+00

     total cpu time spent up to now is       17.2 secs

     total energy              =    -520.63646330 Ry
     estimated scf accuracy    <       0.00130138 Ry

     iteration #  2     ecut=    55.00 Ry     beta= 0.30
     Davidson diagonalization with overlap
     ethr =  1.89E-06,  avg # of iterations = 10.7

     negative rho (up, down):  8.349E-06 0.000E+00

     total cpu time spent up to now is       18.0 secs

     total energy              =    -520.63022282 Ry
     estimated scf accuracy    <       0.51078069 Ry

     iteration #  3     ecut=    55.00 Ry     beta= 0.30
     Davidson diagonalization with overlap
     ethr =  1.89E-06,  avg # of iterations = 10.3

     negative rho (up, down):  8.394E-06 0.000E+00

     total cpu time spent up to now is       18.6 secs

     total energy              =    -520.63704842 Ry
     estimated scf accuracy    <       0.00194377 Ry

     iteration #  4     ecut=    55.00 Ry     beta= 0.30
     Davidson diagonalization with overlap
     ethr =  1.89E-06,  avg # of iterations =  1.0

     negative rho (up, down):  8.382E-06 0.000E+00

     total cpu time spent up to now is       18.9 secs

     total energy              =    -520.63710746 Ry
     estimated scf accuracy    <       0.00003290 Ry

     iteration #  5     ecut=    55.00 Ry     beta= 0.30
     Davidson diagonalization with overlap
     ethr =  4.77E-08,  avg # of iterations =  1.9

     negative rho (up, down):  8.370E-06 0.000E+00

     total cpu time spent up to now is       19.4 secs

     total energy              =    -520.63710921 Ry
     estimated scf accuracy    <       0.00000474 Ry

     iteration #  6     ecut=    55.00 Ry     beta= 0.30
     Davidson diagonalization with overlap
     ethr =  6.87E-09,  avg # of iterations =  2.3

     negative rho (up, down):  8.339E-06 0.000E+00

     total cpu time spent up to now is       19.7 secs

     total energy              =    -520.63710917 Ry
     estimated scf accuracy    <       0.00000397 Ry

     iteration #  7     ecut=    55.00 Ry     beta= 0.30
     Davidson diagonalization with overlap
     ethr =  5.75E-09,  avg # of iterations =  1.4

     negative rho (up, down):  8.308E-06 0.000E+00

     total cpu time spent up to now is       20.1 secs

     total energy              =    -520.63710909 Ry
     estimated scf accuracy    <       0.00000210 Ry

     iteration #  8     ecut=    55.00 Ry     beta= 0.30
     Davidson diagonalization with overlap
     ethr =  3.05E-09,  avg # of iterations =  1.4

     negative rho (up, down):  8.296E-06 0.000E+00

     total cpu time spent up to now is       20.4 secs

     End of self-consistent calculation

          k = 0.0000 0.0000 0.0000 ( 10919 PWs)   bands (ev):

   -42.7809  -3.6245  -3.1534  -2.5802  -2.3596  -2.2895  -2.2018  -0.9932
    -0.8355  -0.8222  -0.8221  -0.8035  -0.7524  -0.7523  -0.7330  -0.7330
    -0.6608  -0.6607  -0.6402  -0.6401  -0.5470  -0.5470  -0.1618   0.1496
     0.1498   0.1964   0.1964   0.2356   0.2358   0.4678   0.4679   0.7188
     0.7188   0.9219   0.9219   1.0209   2.2446   3.4836   3.9409   7.1889
     7.7836   8.1286

          k = 0.0000 0.1444 0.0000 ( 10876 PWs)   bands (ev):

   -42.7776  -3.2135  -2.7611  -2.2103  -2.1057  -2.0075  -1.8931  -1.1500
    -1.0392  -0.9502  -0.8837  -0.8606  -0.8108  -0.6930  -0.6571  -0.6291
    -0.5878  -0.5336  -0.5284  -0.4978  -0.4782  -0.4458  -0.3436  -0.1978
    -0.0033   0.0475   0.1020   0.1546   0.2380   0.2895   0.4615   0.4817
     0.7319   0.9397   0.9496   1.8821   2.9542   4.0295   4.7704   7.5270
     8.1238   8.4256

          k = 0.0000 0.2888 0.0000 ( 10871 PWs)   bands (ev):

   -42.7699  -2.3337  -2.0649  -1.9056  -1.8173  -1.6902  -1.5799  -1.4607
    -1.3650  -1.1800  -1.0669  -0.9246  -0.7588  -0.6436  -0.5973  -0.5616
    -0.4607  -0.3811  -0.3623  -0.2272  -0.1501  -0.0874  -0.0627   0.0487
     0.0791   0.1070   0.2274   0.2478   0.2928   0.4221   0.5333   0.7535
     0.8200   0.9757   1.8320   3.0510   4.1472   5.3367   6.5935   8.4805
     9.1036   9.4091

          k = 0.0000 0.4332 0.0000 ( 10791 PWs)   bands (ev):

   -42.7619  -2.2246  -2.1828  -2.0728  -2.0319  -1.9561  -1.8540  -1.8083
    -1.6919  -1.4152  -1.0845  -0.9059  -0.7795  -0.6978  -0.5501  -0.4674
    -0.2674  -0.1480  -0.0569   0.2220   0.2898   0.5090   0.5381   0.7028
     0.7161   0.7173   0.7952   0.8177   0.8558   0.8981   1.0349   1.5416
     1.8940   2.3627   3.3363   4.5143   5.6730   7.0041   8.3296   8.7775
     9.1925   9.8026

          k = 0.0000-0.5775 0.0000 ( 10736 PWs)   bands (ev):

   -42.7585  -2.3539  -2.2997  -2.2097  -2.1629  -2.0445  -1.9810  -1.9502
    -1.8360  -1.5416  -1.1524  -0.9896  -0.8716  -0.7678  -0.5229  -0.3620
    -0.1780  -0.0712   0.1434   0.2350   0.5269   0.6267   0.7332   0.8852
     0.9848   0.9978   1.0104   1.0199   1.0990   1.1243   1.1722   3.6509
     4.1030   4.5810   4.9360   5.1657   5.3545   5.5020   7.6244   8.0447
     8.5314   8.8841

          k = 0.1251-0.0721 0.0000 ( 10876 PWs)   bands (ev):

   -42.7776  -3.2135  -2.7611  -2.2103  -2.1057  -2.0075  -1.8931  -1.1500
    -1.0392  -0.9502  -0.8837  -0.8606  -0.8108  -0.6930  -0.6571  -0.6291
    -0.5878  -0.5336  -0.5284  -0.4978  -0.4782  -0.4458  -0.3436  -0.1978
    -0.0033   0.0475   0.1020   0.1546   0.2380   0.2895   0.4615   0.4817
     0.7319   0.9397   0.9496   1.8821   2.9542   4.0295   4.7704   7.5270
     8.1238   8.4256

          k = 0.1251 0.0723 0.0000 ( 10875 PWs)   bands (ev):

   -42.7776  -3.2135  -2.7611  -2.2103  -2.1057  -2.0075  -1.8931  -1.1500
    -1.0392  -0.9502  -0.8838  -0.8606  -0.8108  -0.6930  -0.6571  -0.6291
    -0.5878  -0.5336  -0.5284  -0.4977  -0.4782  -0.4459  -0.3437  -0.1979
    -0.0033   0.0475   0.1020   0.1547   0.2381   0.2896   0.4615   0.4818
     0.7319   0.9398   0.9495   1.8819   2.9541   4.0296   4.7704   7.5274
     8.1190   8.4346

          k = 0.1251 0.2167 0.0000 ( 10868 PWs)   bands (ev):

   -42.7721  -2.5059  -2.1532  -1.7159  -1.7012  -1.6268  -1.5071  -1.3253
    -1.2536  -1.2118  -1.1398  -1.0083  -0.9648  -0.8411  -0.8176  -0.6196
    -0.6124  -0.5233  -0.4714  -0.3992  -0.3455  -0.1869  -0.1105  -0.0856
    -0.0004   0.0774   0.1917   0.2529   0.3745   0.3879   0.4663   0.6462
     0.7942   0.8610   1.6131   2.7348   3.8047   4.9444   6.0698   8.1804
     8.7707   9.0938

          k = 0.1251 0.3611 0.0000 ( 10820 PWs)   bands (ev):

   -42.7642  -1.9728  -1.8606  -1.7978  -1.7367  -1.6659  -1.6086  -1.5131
    -1.3478  -1.3007  -1.1311  -0.9955  -0.8916  -0.7715  -0.6901  -0.5848
    -0.5301  -0.4583  -0.2962  -0.2378  -0.1670  -0.0466   0.0777   0.1683
     0.2404   0.4497   0.4905   0.7316   0.7544   0.8067   0.9603   1.4080
     1.5156   1.9340   2.9008   4.0836   5.1946   6.4836   7.9609   9.3429
    10.1003  10.3846

          k = 0.1251-0.6496 0.0000 ( 10762 PWs)   bands (ev):

   -42.7586  -2.1584  -2.0910  -2.0162  -1.9217  -1.8501  -1.7988  -1.7137
    -1.5773  -1.4543  -1.2077  -1.0245  -0.8190  -0.7291  -0.6271  -0.4888
    -0.3958  -0.1194  -0.0352   0.0386   0.2951   0.3481   0.4597   0.5388
     0.6357   0.6838   0.7333   0.8422   0.9499   0.9938   1.1292   3.4848
     3.7342   4.1500   4.8444   5.6701   6.5497   7.1536   7.8910   8.2388
     8.7184   9.3023

          k = 0.1251-0.5052 0.0000 ( 10760 PWs)   bands (ev):

   -42.7586  -2.1584  -2.0910  -2.0162  -1.9217  -1.8500  -1.7988  -1.7137
    -1.5773  -1.4543  -1.2077  -1.0245  -0.8190  -0.7291  -0.6271  -0.4887
    -0.3959  -0.1194  -0.0352   0.0385   0.2950   0.3481   0.4597   0.5389
     0.6358   0.6838   0.7333   0.8422   0.9499   0.9938   1.1292   3.4849
     3.7342   4.1501   4.8445   5.6702   6.5497   7.1536   7.8908   8.2383
     8.7181   9.3024

          k = 0.1251-0.3608 0.0000 ( 10818 PWs)   bands (ev):

   -42.7642  -1.9728  -1.8606  -1.7978  -1.7367  -1.6659  -1.6086  -1.5131
    -1.3478  -1.3007  -1.1310  -0.9955  -0.8915  -0.7715  -0.6900  -0.5849
    -0.5301  -0.4585  -0.2963  -0.2380  -0.1670  -0.0465   0.0776   0.1682
     0.2405   0.4497   0.4906   0.7316   0.7544   0.8068   0.9603   1.4081
     1.5157   1.9342   2.9010   4.0839   5.1945   6.4833   7.9609   9.3420
    10.1132  10.3696

          k = 0.1251-0.2164 0.0000 ( 10863 PWs)   bands (ev):

   -42.7721  -2.5059  -2.1532  -1.7159  -1.7013  -1.6268  -1.5072  -1.3253
    -1.2536  -1.2118  -1.1398  -1.0083  -0.9647  -0.8412  -0.8175  -0.6196
    -0.6123  -0.5233  -0.4715  -0.3992  -0.3455  -0.1869  -0.1106  -0.0856
    -0.0004   0.0776   0.1918   0.2529   0.3744   0.3879   0.4663   0.6461
     0.7944   0.8610   1.6133   2.7351   3.8048   4.9441   6.0697   8.1789
     8.7895   9.0601

          k = 0.2502-0.1441 0.0000 ( 10871 PWs)   bands (ev):

   -42.7699  -2.3337  -2.0649  -1.9056  -1.8173  -1.6902  -1.5799  -1.4607
    -1.3650  -1.1800  -1.0669  -0.9246  -0.7588  -0.6436  -0.5973  -0.5616
    -0.4607  -0.3811  -0.3623  -0.2272  -0.1501  -0.0874  -0.0627   0.0487
     0.0791   0.1070   0.2274   0.2478   0.2928   0.4221   0.5333   0.7535
     0.8200   0.9757   1.8320   3.0510   4.1472   5.3367   6.5935   8.4805
     9.1036   9.4091

          k = 0.2502 0.0003 0.0000 ( 10868 PWs)   bands (ev):

   -42.7721  -2.5059  -2.1532  -1.7159  -1.7012  -1.6268  -1.5071  -1.3253
    -1.2536  -1.2118  -1.1398  -1.0083  -0.9648  -0.8411  -0.8176  -0.6196
    -0.6124  -0.5233  -0.4714  -0.3992  -0.3455  -0.1869  -0.1105  -0.0856
    -0.0005   0.0774   0.1917   0.2529   0.3745   0.3879   0.4663   0.6462
     0.7942   0.8610   1.6131   2.7348   3.8047   4.9444   6.0698   8.1804
     8.7707   9.0938

          k = 0.2502 0.1447 0.0000 ( 10860 PWs)   bands (ev):

   -42.7699  -2.3337  -2.0649  -1.9056  -1.8171  -1.6902  -1.5797  -1.4607
    -1.3650  -1.1800  -1.0669  -0.9247  -0.7588  -0.6436  -0.5973  -0.5615
    -0.4609  -0.3811  -0.3622  -0.2272  -0.1500  -0.0874  -0.0626   0.0487
     0.0792   0.1070   0.2274   0.2478   0.2928   0.4221   0.5334   0.7536
     0.8198   0.9757   1.8316   3.0505   4.1472   5.3370   6.5935   8.4823
     9.0846   9.4454

          k = 0.2502 0.2890 0.0000 ( 10819 PWs)   bands (ev):

   -42.7642  -1.9728  -1.8606  -1.7978  -1.7367  -1.6658  -1.6086  -1.5129
    -1.3478  -1.3008  -1.1310  -0.9955  -0.8916  -0.7715  -0.6901  -0.5847
    -0.5301  -0.4584  -0.2963  -0.2378  -0.1670  -0.0466   0.0777   0.1683
     0.2405   0.4496   0.4906   0.7315   0.7544   0.8067   0.9603   1.4080
     1.5156   1.9340   2.9005   4.0831   5.1945   6.4838   7.9606   9.3444
    10.0737  10.4630

          k = 0.2502-0.7216 0.0000 ( 10755 PWs)   bands (ev):

   -42.7585  -1.8674  -1.8382  -1.7007  -1.6513  -1.5306  -1.4415  -1.3812
    -1.2586  -1.2350  -1.2174  -1.0649  -0.9529  -0.8620  -0.7516  -0.5899
    -0.5504  -0.4446  -0.3689  -0.2783  -0.1028  -0.0571   0.1031   0.1625
     0.2459   0.3357   0.5070   0.8053   0.9706   1.0103   1.1302   3.4022
     3.6100   4.0775   4.9050   5.9148   7.0624   8.2930   8.7544   9.6650
     9.8510  10.0110

          k = 0.2502-0.5773 0.0000 ( 10783 PWs)   bands (ev):

   -42.7563  -1.9236  -1.7148  -1.6814  -1.6092  -1.5489  -1.4739  -1.4126
    -1.3671  -1.2145  -1.1648  -1.0925  -0.9438  -0.8196  -0.7936  -0.5936
    -0.5009  -0.4109  -0.2890  -0.1607  -0.1045  -0.0253   0.1757   0.2910
     0.3610   0.4286   0.6557   0.7776   0.8358   0.9353   0.9749   5.4854
     6.1139   6.1613   6.3466   6.6931   7.1245   7.6876   8.0232   8.4518
     8.9999   9.3656

          k = 0.2502-0.4329 0.0000 ( 10756 PWs)   bands (ev):

   -42.7585  -1.8674  -1.8382  -1.7008  -1.6513  -1.5305  -1.4415  -1.3812
    -1.2586  -1.2349  -1.2174  -1.0649  -0.9530  -0.8620  -0.7518  -0.5899
    -0.5504  -0.4449  -0.3690  -0.2783  -0.1029  -0.0571   0.1031   0.1627
     0.2459   0.3358   0.5071   0.8054   0.9707   1.0103   1.1302   3.4022
     3.6101   4.0778   4.9055   5.9155   7.0624   8.2916   8.7534   9.6652
     9.8511  10.0111

          k = 0.2502-0.2885 0.0000 ( 10818 PWs)   bands (ev):

   -42.7642  -1.9728  -1.8606  -1.7978  -1.7367  -1.6659  -1.6086  -1.5131
    -1.3478  -1.3007  -1.1310  -0.9955  -0.8915  -0.7715  -0.6900  -0.5849
    -0.5301  -0.4585  -0.2963  -0.2380  -0.1670  -0.0465   0.0776   0.1682
     0.2405   0.4497   0.4906   0.7316   0.7544   0.8068   0.9603   1.4081
     1.5157   1.9342   2.9010   4.0839   5.1945   6.4833   7.9609   9.3420
    10.1132  10.3695

          k = 0.3754-0.2162 0.0000 ( 10791 PWs)   bands (ev):

   -42.7619  -2.2246  -2.1828  -2.0728  -2.0319  -1.9561  -1.8540  -1.8083
    -1.6919  -1.4152  -1.0845  -0.9059  -0.7795  -0.6978  -0.5501  -0.4674
    -0.2674  -0.1480  -0.0569   0.2220   0.2898   0.5090   0.5381   0.7028
     0.7161   0.7173   0.7952   0.8177   0.8558   0.8981   1.0349   1.5416
     1.8940   2.3627   3.3363   4.5143   5.6730   7.0041   8.3296   8.7775
     9.1925   9.8026

          k = 0.3754-0.0718 0.0000 ( 10820 PWs)   bands (ev):

   -42.7642  -1.9728  -1.8606  -1.7978  -1.7367  -1.6659  -1.6086  -1.5131
    -1.3478  -1.3007  -1.1311  -0.9955  -0.8916  -0.7715  -0.6901  -0.5848
    -0.5301  -0.4583  -0.2962  -0.2378  -0.1670  -0.0466   0.0777   0.1683
     0.2404   0.4497   0.4905   0.7316   0.7544   0.8067   0.9603   1.4080
     1.5156   1.9340   2.9008   4.0836   5.1946   6.4836   7.9609   9.3429
    10.1003  10.3846

          k = 0.3754 0.0726 0.0000 ( 10819 PWs)   bands (ev):

   -42.7642  -1.9728  -1.8606  -1.7978  -1.7367  -1.6658  -1.6086  -1.5129
    -1.3478  -1.3008  -1.1310  -0.9955  -0.8916  -0.7715  -0.6901  -0.5847
    -0.5301  -0.4584  -0.2963  -0.2378  -0.1670  -0.0466   0.0777   0.1683
     0.2405   0.4496   0.4906   0.7315   0.7544   0.8067   0.9603   1.4080
     1.5156   1.9340   2.9005   4.0831   5.1945   6.4838   7.9606   9.3444
    10.0736  10.4630

          k = 0.3754 0.2170 0.0000 ( 10794 PWs)   bands (ev):

   -42.7619  -2.2246  -2.1828  -2.0729  -2.0319  -1.9560  -1.8538  -1.8084
    -1.6919  -1.4154  -1.0845  -0.9059  -0.7795  -0.6977  -0.5502  -0.4673
    -0.2675  -0.1479  -0.0570   0.2221   0.2896   0.5091   0.5381   0.7028
     0.7161   0.7172   0.7952   0.8178   0.8558   0.8982   1.0349   1.5417
     1.8941   2.3625   3.3356   4.5129   5.6725   7.0046   8.3281   8.7778
     9.1937   9.8052

          k = 0.3754-0.7937 0.0000 ( 10771 PWs)   bands (ev):

   -42.7586  -2.1585  -2.0909  -2.0162  -1.9217  -1.8501  -1.7989  -1.7136
    -1.5773  -1.4544  -1.2077  -1.0245  -0.8189  -0.7291  -0.6272  -0.4889
    -0.3958  -0.1194  -0.0351   0.0385   0.2950   0.3481   0.4597   0.5388
     0.6357   0.6837   0.7333   0.8421   0.9499   0.9938   1.1291   3.4853
     3.7346   4.1498   4.8431   5.6679   6.5481   7.1531   7.8932   8.2402
     8.7184   9.3038

          k = 0.3754-0.6493 0.0000 ( 10768 PWs)   bands (ev):

   -42.7563  -1.9237  -1.7149  -1.6814  -1.6092  -1.5488  -1.4739  -1.4125
    -1.3671  -1.2145  -1.1648  -1.0925  -0.9436  -0.8197  -0.7934  -0.5936
    -0.5009  -0.4109  -0.2890  -0.1607  -0.1044  -0.0253   0.1757   0.2911
     0.3610   0.4285   0.6557   0.7777   0.8358   0.9354   0.9749   5.4858
     6.1136   6.1609   6.3455   6.6922   7.1243   7.6878   8.0243   8.4509
     9.0011   9.3658

          k = 0.3754-0.5049 0.0000 ( 10783 PWs)   bands (ev):

   -42.7563  -1.9236  -1.7148  -1.6814  -1.6092  -1.5489  -1.4739  -1.4126
    -1.3671  -1.2145  -1.1648  -1.0925  -0.9438  -0.8196  -0.7936  -0.5936
    -0.5009  -0.4109  -0.2890  -0.1607  -0.1045  -0.0253   0.1757   0.2910
     0.3610   0.4286   0.6557   0.7776   0.8358   0.9353   0.9749   5.4854
     6.1139   6.1613   6.3466   6.6931   7.1245   7.6876   8.0232   8.4518
     8.9999   9.3656

          k = 0.3754-0.3605 0.0000 ( 10760 PWs)   bands (ev):

   -42.7586  -2.1584  -2.0910  -2.0162  -1.9217  -1.8500  -1.7988  -1.7137
    -1.5773  -1.4543  -1.2077  -1.0245  -0.8190  -0.7291  -0.6271  -0.4887
    -0.3959  -0.1194  -0.0352   0.0385   0.2950   0.3481   0.4597   0.5389
     0.6358   0.6838   0.7333   0.8422   0.9499   0.9938   1.1292   3.4849
     3.7342   4.1501   4.8445   5.6702   6.5497   7.1536   7.8908   8.2383
     8.7182   9.3024

          k =-0.5005 0.2882 0.0000 ( 10736 PWs)   bands (ev):

   -42.7585  -2.3539  -2.2997  -2.2097  -2.1629  -2.0445  -1.9810  -1.9502
    -1.8360  -1.5416  -1.1524  -0.9896  -0.8716  -0.7678  -0.5229  -0.3620
    -0.1780  -0.0712   0.1434   0.2350   0.5269   0.6267   0.7332   0.8852
     0.9848   0.9978   1.0104   1.0199   1.0990   1.1243   1.1722   3.6509
     4.1030   4.5810   4.9360   5.1657   5.3545   5.5020   7.6244   8.0447
     8.5314   8.8841

          k =-0.5005 0.4326 0.0000 ( 10762 PWs)   bands (ev):

   -42.7586  -2.1584  -2.0910  -2.0162  -1.9217  -1.8501  -1.7988  -1.7137
    -1.5773  -1.4543  -1.2077  -1.0245  -0.8190  -0.7291  -0.6271  -0.4888
    -0.3958  -0.1194  -0.0352   0.0386   0.2951   0.3481   0.4597   0.5388
     0.6357   0.6838   0.7333   0.8422   0.9499   0.9938   1.1292   3.4848
     3.7342   4.1500   4.8444   5.6701   6.5497   7.1536   7.8910   8.2388
     8.7184   9.3023

          k =-0.5005 0.5770 0.0000 ( 10755 PWs)   bands (ev):

   -42.7585  -1.8674  -1.8382  -1.7007  -1.6513  -1.5306  -1.4415  -1.3812
    -1.2586  -1.2350  -1.2174  -1.0649  -0.9529  -0.8620  -0.7516  -0.5899
    -0.5504  -0.4446  -0.3689  -0.2783  -0.1028  -0.0571   0.1031   0.1625
     0.2459   0.3357   0.5070   0.8053   0.9706   1.0103   1.1302   3.4022
     3.6100   4.0775   4.9050   5.9148   7.0624   8.2930   8.7544   9.6650
     9.8510  10.0111

          k =-0.5005 0.7214 0.0000 ( 10771 PWs)   bands (ev):

   -42.7586  -2.1585  -2.0909  -2.0162  -1.9217  -1.8501  -1.7989  -1.7136
    -1.5773  -1.4544  -1.2077  -1.0245  -0.8189  -0.7291  -0.6272  -0.4889
    -0.3958  -0.1194  -0.0351   0.0385   0.2950   0.3481   0.4597   0.5388
     0.6357   0.6837   0.7333   0.8421   0.9499   0.9938   1.1291   3.4853
     3.7346   4.1498   4.8431   5.6679   6.5481   7.1531   7.8932   8.2402
     8.7184   9.3038

          k =-0.5005-0.2893 0.0000 ( 10756 PWs)   bands (ev):

   -42.7586  -2.3540  -2.2997  -2.2097  -2.1628  -2.0445  -1.9808  -1.9503
    -1.8361  -1.5417  -1.1525  -0.9896  -0.8716  -0.7677  -0.5229  -0.3624
    -0.1779  -0.0714   0.1431   0.2351   0.5268   0.6268   0.7331   0.8853
     0.9848   0.9977   1.0103   1.0198   1.0989   1.1243   1.1722   3.6525
     4.1047   4.5815   4.9340   5.1611   5.3514   5.5013   7.6255   8.0476
     8.5338   8.8842

     the Fermi energy is     3.9143 ev

!    total energy              =    -520.63710880 Ry
     estimated scf accuracy    <       0.00000043 Ry
     smearing contrib. (-TS)   =      -0.00212681 Ry
     internal energy E=F+TS    =    -520.63498198 Ry

     The total energy is F=E-TS. E is the sum of the following terms:
     one-electron contribution =   -6609.38009748 Ry
     hartree contribution      =    3356.11773401 Ry
     xc contribution           =    -137.62771849 Ry
     ewald contribution        =    2870.44788719 Ry
     DFT-D3 Dispersion         =      -0.19278721 Ry

     convergence has been achieved in   8 iterations

     negative rho (up, down):  8.296E-06 0.000E+00

     Forces acting on atoms (cartesian axes, Ry/au):

     atom    1 type  2   force =    -0.00003637   -0.00002020    0.00077314
     atom    2 type  2   force =    -0.00021614   -0.00012641    0.00500754
     atom    3 type  2   force =     0.00004520    0.00002831   -0.00102065
     atom    4 type  2   force =     0.00014238    0.00007949   -0.00317074
     atom    5 type  2   force =    -0.00010108   -0.00005752    0.00223612
     atom    6 type  2   force =     0.00018604    0.00010832   -0.00254549
     atom    7 type  1   force =    -0.00002003   -0.00001199   -0.00127993
     The non-local contrib.  to forces
     atom    1 type  2   force =     0.00268504    0.00155228   -0.06137671
     atom    2 type  2   force =     0.00148923    0.00085883   -0.03399986
     atom    3 type  2   force =    -0.00006391   -0.00003736    0.00159554
     atom    4 type  2   force =     0.00011326    0.00006292   -0.00253929
     atom    5 type  2   force =    -0.00049791   -0.00028565    0.01082271
     atom    6 type  2   force =    -0.00037201   -0.00021454    0.00531054
     atom    7 type  1   force =    -0.00225118   -0.00130322    0.05097935
     The ionic contribution  to forces
     atom    1 type  2   force =     7.13350565    4.12378141 -163.13752638
     atom    2 type  2   force =     4.43495309    2.56378508 -101.42379053
     atom    3 type  2   force =     1.71054923    0.98884479  -39.11886939
     atom    4 type  2   force =    -1.01324720   -0.58574214   23.17205847
     atom    5 type  2   force =    -3.75886207   -2.17294854   85.96284525
     atom    6 type  2   force =    -6.44344114   -3.72486435  147.38159164
     atom    7 type  1   force =    -2.06345757   -1.19285626   47.16369093
     The local contribution  to forces
     atom    1 type  2   force =    -7.13577125   -4.12509192  163.18940237
     atom    2 type  2   force =    -4.43661070   -2.56474334  101.46168037
     atom    3 type  2   force =    -1.71045674   -0.98879247   39.11667524
     atom    4 type  2   force =     1.01322381    0.58572857  -23.17173086
     atom    5 type  2   force =     3.75908655    2.17307994  -85.96730405
     atom    6 type  2   force =     6.44404434    3.72521348 -147.39038265
     atom    7 type  1   force =     2.06560102    1.19409702  -47.21383942
     The core correction contribution to forces
     atom    1 type  2   force =    -0.00024228   -0.00014013    0.00554771
     atom    2 type  2   force =     0.00000292    0.00000164   -0.00006916
     atom    3 type  2   force =     0.00000175    0.00000084   -0.00003884
     atom    4 type  2   force =    -0.00002384   -0.00001375    0.00053214
     atom    5 type  2   force =     0.00004169    0.00002425   -0.00095351
     atom    6 type  2   force =    -0.00012995   -0.00007514    0.00276348
     atom    7 type  1   force =     0.00000000    0.00000000    0.00000000
     The Hubbard contrib.    to forces
     atom    1 type  2   force =     0.00000000    0.00000000    0.00000000
     atom    2 type  2   force =     0.00000000    0.00000000    0.00000000
     atom    3 type  2   force =     0.00000000    0.00000000    0.00000000
     atom    4 type  2   force =     0.00000000    0.00000000    0.00000000
     atom    5 type  2   force =     0.00000000    0.00000000    0.00000000
     atom    6 type  2   force =     0.00000000    0.00000000    0.00000000
     atom    7 type  1   force =     0.00000000    0.00000000    0.00000000
     The SCF correction term to forces
     atom    1 type  2   force =     0.00000742    0.00000596   -0.00030970
     atom    2 type  2   force =     0.00011193    0.00006543   -0.00251450
     atom    3 type  2   force =     0.00003988    0.00002703   -0.00093820
     atom    4 type  2   force =     0.00007744    0.00004459   -0.00149956
     atom    5 type  2   force =     0.00003329    0.00001625   -0.00092595
     atom    6 type  2   force =    -0.00010472   -0.00006064    0.00240950
     atom    7 type  1   force =    -0.00001467   -0.00000865    0.00035699

     DFT-D3 dispersion contribution to forces:
     atom    1 type  2   force =    -0.00021804   -0.00012605    0.00498639
     atom    2 type  2   force =    -0.00015968   -0.00009231    0.00365174
     atom    3 type  2   force =    -0.00002211   -0.00001278    0.00050553
     atom    4 type  2   force =     0.00000181    0.00000104   -0.00004112
     atom    5 type  2   force =     0.00010028    0.00005798   -0.00229781
     atom    6 type  2   force =     0.00019244    0.00011125   -0.00428748
     atom    7 type  1   force =     0.00010529    0.00006087   -0.00251724

     Total force =     0.007074     Total SCF correction =     0.004047
     SCF correction compared to forces is large: reduce conv_thr to get better values


     Computing stress (Cartesian axis) and pressure


     negative rho (up, down):  8.296E-06 0.000E+00
          total   stress  (Ry/bohr**3)                   (kbar)     P=      -12.26
  -0.00006551   0.00000008   0.00000214           -9.64        0.01        0.31
   0.00000008  -0.00006560   0.00000124            0.01       -9.65        0.18
   0.00000214   0.00000124  -0.00011890            0.31        0.18      -17.49

     Energy error            =      6.7E-05 Ry
     Gradient error          =      5.0E-03 Ry/Bohr

     number of scf cycles    =   2
     number of bfgs steps    =   1

     energy             old  =    -520.6370413962 Ry
     energy             new  =    -520.6371087955 Ry

     CASE: energy            _new < energy            _old


     WARNING: bfgs curvature condition failed, Theta= 0.961
     new trust radius        =       0.0066226481 bohr
     new conv_thr            =       0.0000000100 Ry


ATOMIC_POSITIONS (angstrom)
Ag            1.9495632573        0.5683061286       10.1275214697
Ag            1.8439725310        2.1833950296       12.5423619061
Ag            3.1914874707        1.2862464017       14.9431577447
Ag            1.6393239577        0.3889584673       17.2225515321
Ag            1.5350762665        2.0048305218       19.6063810557
Ag            2.8811550082        1.1068487991       22.0423517310
Li            1.3447325066        0.2186629318       24.0444913400



     Writing config-only to output data dir ./Ag_mp-124_111_hollow_1/Ag_mp-124_111_hollow_1.save/
     NEW-OLD atomic charge density approx. for the potential

     negative rho (up, down):  8.366E-06 0.000E+00

     total cpu time spent up to now is       22.6 secs

     per-process dynamical memory:   187.5 Mb

     Self-consistent Calculation

     iteration #  1     ecut=    55.00 Ry     beta= 0.30
     Davidson diagonalization with overlap
     ethr =  1.00E-06,  avg # of iterations =  3.0

     negative rho (up, down):  8.360E-06 0.000E+00

     total cpu time spent up to now is       23.2 secs

     total energy              =    -520.63678749 Ry
     estimated scf accuracy    <       0.00077506 Ry

     iteration #  2     ecut=    55.00 Ry     beta= 0.30
     Davidson diagonalization with overlap
     ethr =  1.12E-06,  avg # of iterations = 10.5

     negative rho (up, down):  8.433E-06 0.000E+00

     total cpu time spent up to now is       23.9 secs

     total energy              =    -520.63342132 Ry
     estimated scf accuracy    <       0.26351229 Ry

     iteration #  3     ecut=    55.00 Ry     beta= 0.30
     Davidson diagonalization with overlap
     ethr =  1.12E-06,  avg # of iterations = 10.3

     negative rho (up, down):  8.499E-06 0.000E+00

     total cpu time spent up to now is       24.4 secs

     total energy              =    -520.63703421 Ry
     estimated scf accuracy    <       0.00509174 Ry

     iteration #  4     ecut=    55.00 Ry     beta= 0.30
     Davidson diagonalization with overlap
     ethr =  1.12E-06,  avg # of iterations =  2.0

     negative rho (up, down):  8.478E-06 0.000E+00

     total cpu time spent up to now is       24.8 secs

     total energy              =    -520.63717069 Ry
     estimated scf accuracy    <       0.00001729 Ry

     iteration #  5     ecut=    55.00 Ry     beta= 0.30
     Davidson diagonalization with overlap
     ethr =  2.51E-08,  avg # of iterations =  2.7

     negative rho (up, down):  8.463E-06 0.000E+00

     total cpu time spent up to now is       25.2 secs

     total energy              =    -520.63717199 Ry
     estimated scf accuracy    <       0.00000259 Ry

     iteration #  6     ecut=    55.00 Ry     beta= 0.30
     Davidson diagonalization with overlap
     ethr =  3.76E-09,  avg # of iterations =  2.5

     negative rho (up, down):  8.396E-06 0.000E+00

     total cpu time spent up to now is       25.5 secs

     total energy              =    -520.63717196 Ry
     estimated scf accuracy    <       0.00000179 Ry

     iteration #  7     ecut=    55.00 Ry     beta= 0.30
     Davidson diagonalization with overlap
     ethr =  2.60E-09,  avg # of iterations =  1.9

     negative rho (up, down):  8.339E-06 0.000E+00

     total cpu time spent up to now is       25.9 secs

     total energy              =    -520.63717198 Ry
     estimated scf accuracy    <       0.00000060 Ry

     iteration #  8     ecut=    55.00 Ry     beta= 0.30
     Davidson diagonalization with overlap
     ethr =  8.74E-10,  avg # of iterations =  2.8

     negative rho (up, down):  8.340E-06 0.000E+00

     total cpu time spent up to now is       26.2 secs

     total energy              =    -520.63717206 Ry
     estimated scf accuracy    <       0.00000008 Ry

     iteration #  9     ecut=    55.00 Ry     beta= 0.30
     Davidson diagonalization with overlap
     ethr =  1.16E-10,  avg # of iterations =  3.9

     negative rho (up, down):  8.330E-06 0.000E+00

     total cpu time spent up to now is       26.7 secs

     End of self-consistent calculation

          k = 0.0000 0.0000 0.0000 ( 10919 PWs)   bands (ev):

   -42.7819  -3.6259  -3.1542  -2.5805  -2.3602  -2.2911  -2.2003  -0.9915
    -0.8352  -0.8225  -0.8225  -0.8051  -0.7530  -0.7529  -0.7335  -0.7335
    -0.6609  -0.6608  -0.6409  -0.6409  -0.5468  -0.5468  -0.1618   0.1494
     0.1497   0.1954   0.1955   0.2360   0.2362   0.4688   0.4689   0.7181
     0.7181   0.9220   0.9220   1.0207   2.2446   3.4833   3.9408   7.1889
     7.7844   8.1296

          k = 0.0000 0.1444 0.0000 ( 10876 PWs)   bands (ev):

   -42.7787  -3.2149  -2.7619  -2.2107  -2.1065  -2.0087  -1.8920  -1.1489
    -1.0410  -0.9514  -0.8846  -0.8611  -0.8099  -0.6927  -0.6578  -0.6290
    -0.5881  -0.5337  -0.5290  -0.4982  -0.4786  -0.4459  -0.3436  -0.1973
    -0.0038   0.0480   0.1022   0.1542   0.2388   0.2902   0.4601   0.4825
     0.7310   0.9399   0.9491   1.8822   2.9542   4.0294   4.7707   7.5271
     8.1247   8.4266

          k = 0.0000 0.2888 0.0000 ( 10871 PWs)   bands (ev):

   -42.7709  -2.3350  -2.0657  -1.9065  -1.8179  -1.6907  -1.5801  -1.4614
    -1.3655  -1.1806  -1.0670  -0.9249  -0.7583  -0.6437  -0.5977  -0.5626
    -0.4609  -0.3812  -0.3633  -0.2267  -0.1505  -0.0870  -0.0628   0.0484
     0.0789   0.1071   0.2273   0.2479   0.2932   0.4225   0.5337   0.7526
     0.8201   0.9759   1.8325   3.0501   4.1477   5.3373   6.5941   8.4810
     9.1046   9.4098

          k = 0.0000 0.4332 0.0000 ( 10791 PWs)   bands (ev):

   -42.7629  -2.2254  -2.1839  -2.0738  -2.0322  -1.9573  -1.8540  -1.8091
    -1.6918  -1.4155  -1.0839  -0.9060  -0.7794  -0.6989  -0.5500  -0.4685
    -0.2674  -0.1480  -0.0576   0.2231   0.2900   0.5086   0.5377   0.7027
     0.7160   0.7171   0.7951   0.8176   0.8558   0.8975   1.0351   1.5411
     1.8935   2.3638   3.3369   4.5125   5.6738   7.0050   8.3298   8.7775
     9.1920   9.8045

          k = 0.0000-0.5775 0.0000 ( 10736 PWs)   bands (ev):

   -42.7596  -2.3549  -2.3008  -2.2108  -2.1633  -2.0453  -1.9813  -1.9511
    -1.8357  -1.5416  -1.1514  -0.9903  -0.8716  -0.7689  -0.5239  -0.3617
    -0.1779  -0.0710   0.1425   0.2363   0.5266   0.6259   0.7336   0.8853
     0.9851   0.9978   1.0097   1.0198   1.0989   1.1244   1.1718   3.6502
     4.1021   4.5820   4.9357   5.1653   5.3543   5.5019   7.6247   8.0450
     8.5308   8.8854

          k = 0.1251-0.0721 0.0000 ( 10876 PWs)   bands (ev):

   -42.7787  -3.2149  -2.7619  -2.2107  -2.1065  -2.0087  -1.8920  -1.1489
    -1.0410  -0.9514  -0.8846  -0.8611  -0.8099  -0.6927  -0.6578  -0.6290
    -0.5881  -0.5337  -0.5290  -0.4982  -0.4786  -0.4459  -0.3436  -0.1973
    -0.0038   0.0480   0.1022   0.1542   0.2388   0.2902   0.4601   0.4825
     0.7310   0.9399   0.9491   1.8822   2.9542   4.0294   4.7707   7.5271
     8.1247   8.4266

          k = 0.1251 0.0723 0.0000 ( 10875 PWs)   bands (ev):

   -42.7787  -3.2149  -2.7619  -2.2106  -2.1065  -2.0087  -1.8920  -1.1490
    -1.0410  -0.9514  -0.8847  -0.8611  -0.8099  -0.6927  -0.6578  -0.6290
    -0.5882  -0.5336  -0.5291  -0.4981  -0.4786  -0.4460  -0.3437  -0.1974
    -0.0038   0.0480   0.1022   0.1543   0.2388   0.2903   0.4601   0.4825
     0.7311   0.9399   0.9489   1.8821   2.9541   4.0296   4.7707   7.5275
     8.1199   8.4356

          k = 0.1251 0.2167 0.0000 ( 10868 PWs)   bands (ev):

   -42.7732  -2.5073  -2.1541  -1.7165  -1.7019  -1.6277  -1.5072  -1.3249
    -1.2546  -1.2122  -1.1410  -1.0086  -0.9651  -0.8409  -0.8175  -0.6186
    -0.6136  -0.5243  -0.4714  -0.3987  -0.3451  -0.1869  -0.1106  -0.0848
    -0.0012   0.0769   0.1915   0.2535   0.3750   0.3881   0.4660   0.6456
     0.7934   0.8616   1.6135   2.7342   3.8050   4.9448   6.0703   8.1808
     8.7717   9.0945

          k = 0.1251 0.3611 0.0000 ( 10820 PWs)   bands (ev):

   -42.7653  -1.9740  -1.8617  -1.7985  -1.7375  -1.6666  -1.6092  -1.5137
    -1.3476  -1.3016  -1.1312  -0.9954  -0.8916  -0.7726  -0.6907  -0.5851
    -0.5301  -0.4587  -0.2961  -0.2379  -0.1669  -0.0460   0.0778   0.1692
     0.2408   0.4489   0.4902   0.7314   0.7538   0.8067   0.9604   1.4079
     1.5151   1.9350   2.9014   4.0821   5.1953   6.4844   7.9615   9.3436
    10.1010  10.3849

          k = 0.1251-0.6496 0.0000 ( 10762 PWs)   bands (ev):

   -42.7596  -2.1595  -2.0920  -2.0172  -1.9221  -1.8509  -1.7997  -1.7141
    -1.5772  -1.4545  -1.2069  -1.0261  -0.8190  -0.7294  -0.6273  -0.4888
    -0.3960  -0.1202  -0.0343   0.0390   0.2949   0.3483   0.4598   0.5382
     0.6363   0.6834   0.7332   0.8421   0.9497   0.9939   1.1291   3.4845
     3.7332   4.1511   4.8442   5.6692   6.5498   7.1534   7.8911   8.2394
     8.7176   9.3042

          k = 0.1251-0.5052 0.0000 ( 10760 PWs)   bands (ev):

   -42.7596  -2.1595  -2.0919  -2.0171  -1.9221  -1.8508  -1.7997  -1.7141
    -1.5772  -1.4545  -1.2069  -1.0261  -0.8190  -0.7295  -0.6274  -0.4887
    -0.3962  -0.1202  -0.0342   0.0389   0.2948   0.3484   0.4598   0.5382
     0.6363   0.6834   0.7332   0.8421   0.9497   0.9940   1.1291   3.4845
     3.7333   4.1512   4.8443   5.6694   6.5499   7.1534   7.8909   8.2389
     8.7174   9.3043

          k = 0.1251-0.3608 0.0000 ( 10818 PWs)   bands (ev):

   -42.7653  -1.9740  -1.8616  -1.7985  -1.7375  -1.6666  -1.6092  -1.5137
    -1.3476  -1.3016  -1.1311  -0.9953  -0.8914  -0.7726  -0.6906  -0.5852
    -0.5302  -0.4589  -0.2962  -0.2380  -0.1669  -0.0460   0.0777   0.1692
     0.2409   0.4489   0.4903   0.7315   0.7538   0.8067   0.9603   1.4080
     1.5151   1.9351   2.9016   4.0824   5.1953   6.4842   7.9614   9.3427
    10.1139  10.3699

          k = 0.1251-0.2164 0.0000 ( 10863 PWs)   bands (ev):

   -42.7732  -2.5073  -2.1541  -1.7165  -1.7020  -1.6278  -1.5072  -1.3249
    -1.2546  -1.2122  -1.1410  -1.0086  -0.9650  -0.8409  -0.8175  -0.6186
    -0.6136  -0.5243  -0.4715  -0.3987  -0.3451  -0.1868  -0.1108  -0.0847
    -0.0011   0.0770   0.1916   0.2535   0.3749   0.3882   0.4660   0.6455
     0.7935   0.8616   1.6137   2.7345   3.8051   4.9445   6.0702   8.1793
     8.7907   9.0608

          k = 0.2502-0.1441 0.0000 ( 10871 PWs)   bands (ev):

   -42.7709  -2.3350  -2.0657  -1.9065  -1.8179  -1.6907  -1.5801  -1.4614
    -1.3655  -1.1806  -1.0670  -0.9249  -0.7583  -0.6437  -0.5977  -0.5626
    -0.4609  -0.3812  -0.3633  -0.2267  -0.1505  -0.0870  -0.0628   0.0484
     0.0789   0.1071   0.2273   0.2479   0.2932   0.4225   0.5337   0.7526
     0.8201   0.9759   1.8325   3.0501   4.1477   5.3373   6.5941   8.4810
     9.1046   9.4097

          k = 0.2502 0.0003 0.0000 ( 10868 PWs)   bands (ev):

   -42.7732  -2.5073  -2.1541  -1.7165  -1.7019  -1.6277  -1.5072  -1.3249
    -1.2546  -1.2122  -1.1410  -1.0086  -0.9651  -0.8409  -0.8175  -0.6186
    -0.6136  -0.5243  -0.4714  -0.3987  -0.3451  -0.1869  -0.1106  -0.0848
    -0.0012   0.0769   0.1915   0.2535   0.3750   0.3881   0.4660   0.6456
     0.7934   0.8616   1.6135   2.7342   3.8050   4.9448   6.0703   8.1808
     8.7717   9.0945

          k = 0.2502 0.1447 0.0000 ( 10860 PWs)   bands (ev):

   -42.7709  -2.3350  -2.0657  -1.9065  -1.8177  -1.6907  -1.5800  -1.4614
    -1.3655  -1.1806  -1.0670  -0.9249  -0.7584  -0.6437  -0.5977  -0.5625
    -0.4610  -0.3812  -0.3632  -0.2267  -0.1504  -0.0870  -0.0628   0.0484
     0.0789   0.1071   0.2274   0.2479   0.2932   0.4225   0.5338   0.7527
     0.8200   0.9760   1.8322   3.0496   4.1476   5.3376   6.5940   8.4828
     9.0856   9.4461

          k = 0.2502 0.2890 0.0000 ( 10819 PWs)   bands (ev):

   -42.7653  -1.9740  -1.8617  -1.7985  -1.7375  -1.6665  -1.6092  -1.5135
    -1.3476  -1.3017  -1.1311  -0.9954  -0.8915  -0.7726  -0.6907  -0.5851
    -0.5302  -0.4588  -0.2962  -0.2378  -0.1669  -0.0460   0.0778   0.1692
     0.2408   0.4488   0.4903   0.7314   0.7538   0.8066   0.9604   1.4080
     1.5150   1.9349   2.9012   4.0816   5.1952   6.4846   7.9612   9.3451
    10.0743  10.4633

          k = 0.2502-0.7216 0.0000 ( 10755 PWs)   bands (ev):

   -42.7596  -1.8683  -1.8396  -1.7016  -1.6521  -1.5312  -1.4422  -1.3823
    -1.2591  -1.2347  -1.2181  -1.0658  -0.9525  -0.8622  -0.7524  -0.5897
    -0.5508  -0.4449  -0.3692  -0.2775  -0.1023  -0.0565   0.1043   0.1638
     0.2457   0.3346   0.5063   0.8055   0.9706   1.0103   1.1301   3.4019
     3.6090   4.0787   4.9048   5.9138   7.0631   8.2936   8.7544   9.6650
     9.8503  10.0106

          k = 0.2502-0.5773 0.0000 ( 10783 PWs)   bands (ev):

   -42.7574  -1.9247  -1.7161  -1.6824  -1.6100  -1.5493  -1.4750  -1.4144
    -1.3659  -1.2150  -1.1661  -1.0934  -0.9439  -0.8189  -0.7937  -0.5928
    -0.5017  -0.4120  -0.2888  -0.1605  -0.1041  -0.0237   0.1755   0.2906
     0.3623   0.4292   0.6542   0.7776   0.8359   0.9355   0.9750   5.4852
     6.1138   6.1598   6.3459   6.6936   7.1252   7.6879   8.0223   8.4520
     8.9995   9.3645

          k = 0.2502-0.4329 0.0000 ( 10756 PWs)   bands (ev):

   -42.7596  -1.8683  -1.8396  -1.7017  -1.6520  -1.5311  -1.4422  -1.3823
    -1.2591  -1.2346  -1.2181  -1.0658  -0.9527  -0.8622  -0.7526  -0.5897
    -0.5509  -0.4452  -0.3693  -0.2775  -0.1024  -0.0565   0.1043   0.1639
     0.2457   0.3346   0.5064   0.8056   0.9707   1.0103   1.1301   3.4019
     3.6091   4.0790   4.9054   5.9144   7.0631   8.2923   8.7534   9.6652
     9.8505  10.0108

          k = 0.2502-0.2885 0.0000 ( 10818 PWs)   bands (ev):

   -42.7653  -1.9740  -1.8616  -1.7985  -1.7375  -1.6666  -1.6092  -1.5137
    -1.3476  -1.3016  -1.1311  -0.9953  -0.8914  -0.7726  -0.6906  -0.5852
    -0.5302  -0.4589  -0.2962  -0.2380  -0.1669  -0.0460   0.0777   0.1692
     0.2409   0.4489   0.4903   0.7315   0.7538   0.8067   0.9603   1.4080
     1.5151   1.9351   2.9016   4.0824   5.1953   6.4842   7.9614   9.3427
    10.1139  10.3699

          k = 0.3754-0.2162 0.0000 ( 10791 PWs)   bands (ev):

   -42.7629  -2.2254  -2.1839  -2.0738  -2.0322  -1.9573  -1.8540  -1.8091
    -1.6918  -1.4155  -1.0839  -0.9060  -0.7794  -0.6989  -0.5500  -0.4685
    -0.2674  -0.1480  -0.0576   0.2231   0.2900   0.5086   0.5377   0.7027
     0.7160   0.7171   0.7951   0.8176   0.8558   0.8975   1.0351   1.5411
     1.8935   2.3638   3.3369   4.5125   5.6738   7.0050   8.3298   8.7775
     9.1920   9.8045

          k = 0.3754-0.0718 0.0000 ( 10820 PWs)   bands (ev):

   -42.7653  -1.9740  -1.8617  -1.7985  -1.7375  -1.6666  -1.6092  -1.5137
    -1.3476  -1.3016  -1.1312  -0.9954  -0.8916  -0.7726  -0.6907  -0.5851
    -0.5301  -0.4587  -0.2961  -0.2379  -0.1669  -0.0460   0.0778   0.1692
     0.2408   0.4489   0.4902   0.7314   0.7538   0.8067   0.9604   1.4079
     1.5151   1.9350   2.9014   4.0821   5.1953   6.4844   7.9615   9.3436
    10.1010  10.3849

          k = 0.3754 0.0726 0.0000 ( 10819 PWs)   bands (ev):

   -42.7653  -1.9740  -1.8617  -1.7985  -1.7375  -1.6665  -1.6092  -1.5135
    -1.3476  -1.3017  -1.1311  -0.9954  -0.8915  -0.7726  -0.6907  -0.5851
    -0.5302  -0.4588  -0.2962  -0.2378  -0.1669  -0.0460   0.0778   0.1692
     0.2408   0.4488   0.4903   0.7314   0.7538   0.8066   0.9604   1.4080
     1.5150   1.9349   2.9012   4.0816   5.1952   6.4846   7.9612   9.3451
    10.0743  10.4633

          k = 0.3754 0.2170 0.0000 ( 10794 PWs)   bands (ev):

   -42.7629  -2.2254  -2.1839  -2.0739  -2.0322  -1.9573  -1.8538  -1.8092
    -1.6918  -1.4156  -1.0839  -0.9060  -0.7795  -0.6988  -0.5501  -0.4684
    -0.2675  -0.1479  -0.0576   0.2231   0.2898   0.5087   0.5377   0.7027
     0.7160   0.7170   0.7952   0.8176   0.8558   0.8975   1.0351   1.5412
     1.8936   2.3636   3.3362   4.5112   5.6734   7.0055   8.3283   8.7778
     9.1932   9.8071

          k = 0.3754-0.7937 0.0000 ( 10771 PWs)   bands (ev):

   -42.7596  -2.1596  -2.0919  -2.0172  -1.9221  -1.8509  -1.7997  -1.7139
    -1.5772  -1.4546  -1.2069  -1.0261  -0.8189  -0.7295  -0.6274  -0.4889
    -0.3960  -0.1202  -0.0342   0.0389   0.2949   0.3484   0.4598   0.5382
     0.6362   0.6833   0.7332   0.8421   0.9497   0.9939   1.1290   3.4850
     3.7336   4.1509   4.8429   5.6671   6.5482   7.1529   7.8933   8.2407
     8.7176   9.3057

          k = 0.3754-0.6493 0.0000 ( 10768 PWs)   bands (ev):

   -42.7573  -1.9247  -1.7161  -1.6824  -1.6099  -1.5492  -1.4750  -1.4143
    -1.3659  -1.2149  -1.1660  -1.0933  -0.9437  -0.8189  -0.7935  -0.5928
    -0.5016  -0.4120  -0.2888  -0.1605  -0.1041  -0.0237   0.1756   0.2907
     0.3623   0.4291   0.6542   0.7776   0.8358   0.9355   0.9750   5.4856
     6.1135   6.1595   6.3448   6.6927   7.1249   7.6881   8.0234   8.4511
     9.0006   9.3648

          k = 0.3754-0.5049 0.0000 ( 10783 PWs)   bands (ev):

   -42.7574  -1.9247  -1.7161  -1.6824  -1.6100  -1.5493  -1.4750  -1.4144
    -1.3659  -1.2150  -1.1661  -1.0934  -0.9439  -0.8189  -0.7937  -0.5928
    -0.5017  -0.4120  -0.2888  -0.1605  -0.1041  -0.0237   0.1755   0.2906
     0.3623   0.4292   0.6542   0.7776   0.8359   0.9355   0.9750   5.4852
     6.1138   6.1598   6.3459   6.6936   7.1252   7.6879   8.0223   8.4521
     8.9995   9.3646

          k = 0.3754-0.3605 0.0000 ( 10760 PWs)   bands (ev):

   -42.7596  -2.1595  -2.0919  -2.0171  -1.9221  -1.8508  -1.7997  -1.7141
    -1.5772  -1.4545  -1.2069  -1.0261  -0.8190  -0.7295  -0.6274  -0.4887
    -0.3962  -0.1202  -0.0342   0.0389   0.2948   0.3484   0.4598   0.5382
     0.6363   0.6834   0.7332   0.8421   0.9497   0.9940   1.1291   3.4845
     3.7333   4.1512   4.8443   5.6694   6.5499   7.1534   7.8909   8.2389
     8.7174   9.3043

          k =-0.5005 0.2882 0.0000 ( 10736 PWs)   bands (ev):

   -42.7596  -2.3549  -2.3008  -2.2108  -2.1633  -2.0453  -1.9813  -1.9511
[...]
    -1.3673  -1.3252  -1.1466  -1.0274  -0.9119  -0.8106  -0.7079  -0.6068
    -0.5208  -0.4665  -0.3010  -0.2495  -0.1677  -0.0399   0.0906   0.1738
     0.2436   0.4568   0.4952   0.7455   0.7628   0.8205   0.9906   1.4041
     1.5143   1.9464   2.9341   4.1262   5.2557   6.5738   8.0353   9.4018
    10.1682  10.3748

          k = 0.1251-0.2164 0.0000 ( 10863 PWs)   bands (ev):

   -42.7477  -2.5782  -2.2023  -1.7668  -1.7376  -1.6649  -1.5325  -1.3493
    -1.2847  -1.2454  -1.1765  -1.0221  -0.9747  -0.8437  -0.8168  -0.6322
    -0.6186  -0.5568  -0.4509  -0.3900  -0.3575  -0.2063  -0.1257  -0.0810
    -0.0056   0.0702   0.1875   0.2577   0.3787   0.3953   0.4829   0.6616
     0.8094   0.8982   1.6486   2.7800   3.8561   5.0145   6.1470   8.2052
     8.8469   9.0927

          k = 0.2502-0.1441 0.0000 ( 10871 PWs)   bands (ev):

   -42.7455  -2.4025  -2.1114  -1.9526  -1.8500  -1.7279  -1.6077  -1.4871
    -1.3847  -1.2151  -1.0976  -0.9381  -0.7564  -0.6429  -0.6326  -0.5864
    -0.4644  -0.4074  -0.3809  -0.2246  -0.1820  -0.0841  -0.0796   0.0363
     0.0956   0.1025   0.2271   0.2667   0.2979   0.4333   0.5482   0.7714
     0.8359   1.0178   1.8676   3.0966   4.2018   5.4146   6.6720   8.5188
     9.1663   9.4311

          k = 0.2502 0.0003 0.0000 ( 10868 PWs)   bands (ev):

   -42.7478  -2.5782  -2.2023  -1.7666  -1.7376  -1.6647  -1.5325  -1.3494
    -1.2849  -1.2455  -1.1766  -1.0222  -0.9746  -0.8439  -0.8168  -0.6319
    -0.6189  -0.5571  -0.4502  -0.3895  -0.3578  -0.2064  -0.1254  -0.0812
    -0.0057   0.0701   0.1872   0.2577   0.3785   0.3956   0.4830   0.6612
     0.8092   0.8980   1.6488   2.7804   3.8562   5.0146   6.1472   8.2064
     8.8265   9.1277

          k = 0.2502 0.1447 0.0000 ( 10860 PWs)   bands (ev):

   -42.7455  -2.4024  -2.1114  -1.9524  -1.8499  -1.7278  -1.6078  -1.4871
    -1.3848  -1.2152  -1.0979  -0.9382  -0.7565  -0.6429  -0.6322  -0.5865
    -0.4646  -0.4071  -0.3809  -0.2245  -0.1821  -0.0842  -0.0794   0.0363
     0.0956   0.1025   0.2271   0.2665   0.2979   0.4333   0.5483   0.7712
     0.8357   1.0176   1.8678   3.0970   4.2020   5.4148   6.6723   8.5205
     9.1434   9.4717

          k = 0.2502 0.2890 0.0000 ( 10819 PWs)   bands (ev):

   -42.7398  -2.0375  -1.9251  -1.8465  -1.7798  -1.6982  -1.6470  -1.5341
    -1.3672  -1.3252  -1.1468  -1.0273  -0.9120  -0.8104  -0.7080  -0.6065
    -0.5209  -0.4665  -0.3009  -0.2494  -0.1677  -0.0400   0.0907   0.1738
     0.2435   0.4568   0.4951   0.7454   0.7625   0.8204   0.9904   1.4042
     1.5142   1.9463   2.9342   4.1267   5.2558   6.5740   8.0357   9.4043
    10.1181  10.4784

          k = 0.2502-0.7216 0.0000 ( 10755 PWs)   bands (ev):

   -42.7341  -1.9316  -1.9061  -1.7494  -1.6931  -1.5758  -1.4826  -1.4213
    -1.3044  -1.2599  -1.2486  -1.1020  -0.9691  -0.8841  -0.7722  -0.5998
    -0.5565  -0.4584  -0.3669  -0.2700  -0.0858  -0.0278   0.1190   0.1781
     0.2532   0.3495   0.5227   0.8290   0.9943   1.0263   1.1527   3.3878
     3.6004   4.0873   4.9262   5.9526   7.1242   8.3548   8.7828   9.6902
     9.8334  10.0161

          k = 0.2502-0.5773 0.0000 ( 10783 PWs)   bands (ev):

   -42.7319  -1.9912  -1.7810  -1.7286  -1.6676  -1.6007  -1.5180  -1.4523
    -1.3944  -1.2590  -1.1939  -1.1215  -0.9627  -0.8365  -0.8070  -0.5956
    -0.5192  -0.4243  -0.2913  -0.1363  -0.0955  -0.0054   0.1897   0.3054
     0.3815   0.4460   0.6721   0.7959   0.8653   0.9638   1.0027   5.4878
     6.0956   6.1351   6.3347   6.6942   7.1362   7.7127   8.0490   8.4897
     9.0375   9.3462

          k = 0.2502-0.4329 0.0000 ( 10756 PWs)   bands (ev):

   -42.7341  -1.9314  -1.9059  -1.7494  -1.6930  -1.5758  -1.4826  -1.4214
    -1.3047  -1.2599  -1.2486  -1.1019  -0.9691  -0.8845  -0.7724  -0.5995
    -0.5567  -0.4584  -0.3669  -0.2700  -0.0857  -0.0278   0.1191   0.1781
     0.2532   0.3496   0.5227   0.8291   0.9943   1.0265   1.1528   3.3878
     3.6005   4.0873   4.9261   5.9523   7.1242   8.3552   8.7831   9.6901
     9.8330  10.0159

          k = 0.2502-0.2885 0.0000 ( 10818 PWs)   bands (ev):

   -42.7398  -2.0376  -1.9248  -1.8467  -1.7798  -1.6983  -1.6469  -1.5342
    -1.3673  -1.3252  -1.1466  -1.0274  -0.9119  -0.8106  -0.7079  -0.6068
    -0.5208  -0.4665  -0.3010  -0.2495  -0.1677  -0.0399   0.0906   0.1738
     0.2436   0.4568   0.4952   0.7455   0.7628   0.8205   0.9906   1.4041
     1.5143   1.9464   2.9341   4.1262   5.2557   6.5738   8.0353   9.4018
    10.1682  10.3748

          k = 0.3754-0.2162 0.0000 ( 10791 PWs)   bands (ev):

   -42.7375  -2.2815  -2.2394  -2.1323  -2.0589  -1.9906  -1.8700  -1.8464
    -1.6966  -1.4418  -1.0879  -0.8998  -0.7691  -0.7533  -0.5741  -0.5122
    -0.2861  -0.1720  -0.0687   0.2164   0.2930   0.5252   0.5362   0.6967
     0.7148   0.7336   0.7975   0.8237   0.8604   0.9062   1.0754   1.5257
     1.8973   2.3724   3.3623   4.5497   5.7334   7.0929   8.3671   8.7905
     9.2074   9.8468

          k = 0.3754-0.0718 0.0000 ( 10820 PWs)   bands (ev):

   -42.7398  -2.0377  -1.9249  -1.8466  -1.7799  -1.6982  -1.6470  -1.5341
    -1.3673  -1.3253  -1.1468  -1.0273  -0.9122  -0.8102  -0.7076  -0.6064
    -0.5207  -0.4664  -0.3010  -0.2494  -0.1677  -0.0400   0.0905   0.1736
     0.2435   0.4567   0.4952   0.7454   0.7625   0.8205   0.9904   1.4042
     1.5143   1.9464   2.9342   4.1264   5.2558   6.5739   8.0354   9.4027
    10.1528  10.3904

          k = 0.3754 0.0726 0.0000 ( 10819 PWs)   bands (ev):

   -42.7398  -2.0375  -1.9251  -1.8465  -1.7798  -1.6982  -1.6470  -1.5341
    -1.3672  -1.3252  -1.1468  -1.0273  -0.9120  -0.8104  -0.7080  -0.6065
    -0.5209  -0.4665  -0.3009  -0.2495  -0.1677  -0.0400   0.0907   0.1738
     0.2435   0.4568   0.4951   0.7454   0.7625   0.8204   0.9904   1.4042
     1.5142   1.9463   2.9342   4.1267   5.2558   6.5740   8.0357   9.4043
    10.1181  10.4784

          k = 0.3754 0.2170 0.0000 ( 10794 PWs)   bands (ev):

   -42.7375  -2.2814  -2.2393  -2.1325  -2.0589  -1.9904  -1.8699  -1.8466
    -1.6965  -1.4416  -1.0884  -0.9003  -0.7688  -0.7535  -0.5741  -0.5118
    -0.2865  -0.1720  -0.0683   0.2162   0.2928   0.5254   0.5361   0.6966
     0.7149   0.7335   0.7975   0.8236   0.8604   0.9062   1.0753   1.5261
     1.8972   2.3719   3.3623   4.5502   5.7335   7.0930   8.3673   8.7907
     9.2083   9.8481

          k = 0.3754-0.7937 0.0000 ( 10771 PWs)   bands (ev):

   -42.7342  -2.2241  -2.1496  -2.0698  -1.9552  -1.8855  -1.8372  -1.7285
    -1.5882  -1.4769  -1.2274  -1.0655  -0.8348  -0.7410  -0.6414  -0.5124
    -0.4092  -0.1367  -0.0403   0.0336   0.2917   0.3492   0.4651   0.5498
     0.6474   0.6968   0.7471   0.8671   0.9647   1.0124   1.1505   3.4676
     3.7247   4.1561   4.8565   5.6923   6.5773   7.1672   7.9163   8.2712
     8.7520   9.3552

          k = 0.3754-0.6493 0.0000 ( 10768 PWs)   bands (ev):

   -42.7319  -1.9914  -1.7809  -1.7287  -1.6676  -1.6007  -1.5180  -1.4521
    -1.3944  -1.2587  -1.1938  -1.1215  -0.9625  -0.8360  -0.8073  -0.5957
    -0.5190  -0.4244  -0.2912  -0.1366  -0.0955  -0.0057   0.1898   0.3057
     0.3818   0.4461   0.6722   0.7960   0.8654   0.9638   1.0026   5.4877
     6.0962   6.1352   6.3347   6.6937   7.1352   7.7120   8.0498   8.4900
     9.0387   9.3461

          k = 0.3754-0.5049 0.0000 ( 10783 PWs)   bands (ev):

   -42.7319  -1.9912  -1.7810  -1.7286  -1.6676  -1.6007  -1.5180  -1.4523
    -1.3944  -1.2590  -1.1939  -1.1215  -0.9627  -0.8365  -0.8070  -0.5956
    -0.5192  -0.4243  -0.2913  -0.1363  -0.0955  -0.0054   0.1897   0.3054
     0.3815   0.4460   0.6721   0.7959   0.8653   0.9638   1.0027   5.4878
     6.0956   6.1351   6.3347   6.6942   7.1362   7.7127   8.0490   8.4897
     9.0375   9.3462

          k = 0.3754-0.3605 0.0000 ( 10760 PWs)   bands (ev):

   -42.7342  -2.2240  -2.1496  -2.0698  -1.9553  -1.8855  -1.8372  -1.7284
    -1.5882  -1.4770  -1.2270  -1.0654  -0.8349  -0.7410  -0.6416  -0.5123
    -0.4092  -0.1371  -0.0402   0.0340   0.2916   0.3493   0.4651   0.5499
     0.6474   0.6969   0.7471   0.8671   0.9648   1.0124   1.1506   3.4674
     3.7250   4.1565   4.8564   5.6919   6.5779   7.1679   7.9154   8.2713
     8.7508   9.3541

          k =-0.5005 0.2882 0.0000 ( 10736 PWs)   bands (ev):

   -42.7341  -2.4120  -2.3587  -2.2684  -2.1903  -2.0769  -1.9988  -1.9871
    -1.8396  -1.5672  -1.1575  -0.9828  -0.8413  -0.8398  -0.5673  -0.3837
    -0.2000  -0.0896   0.1397   0.2358   0.5302   0.6405   0.7642   0.9079
     0.9793   0.9943   1.0082   1.0402   1.0943   1.1328   1.1884   3.6229
     4.0929   4.5856   4.9376   5.1699   5.3628   5.5175   7.6686   8.0865
     8.5638   8.9187

          k =-0.5005 0.4326 0.0000 ( 10762 PWs)   bands (ev):

   -42.7342  -2.2240  -2.1497  -2.0698  -1.9552  -1.8855  -1.8372  -1.7285
    -1.5883  -1.4770  -1.2273  -1.0653  -0.8348  -0.7409  -0.6412  -0.5123
    -0.4091  -0.1372  -0.0400   0.0337   0.2916   0.3494   0.4650   0.5500
     0.6473   0.6969   0.7471   0.8671   0.9647   1.0123   1.1504   3.4674
     3.7249   4.1564   4.8564   5.6920   6.5779   7.1680   7.9153   8.2712
     8.7507   9.3541

          k =-0.5005 0.5770 0.0000 ( 10755 PWs)   bands (ev):

   -42.7341  -1.9316  -1.9061  -1.7494  -1.6931  -1.5758  -1.4826  -1.4213
    -1.3044  -1.2599  -1.2486  -1.1020  -0.9691  -0.8841  -0.7722  -0.5998
    -0.5565  -0.4584  -0.3669  -0.2700  -0.0858  -0.0278   0.1190   0.1781
     0.2532   0.3495   0.5227   0.8290   0.9943   1.0263   1.1527   3.3878
     3.6004   4.0873   4.9262   5.9526   7.1242   8.3548   8.7828   9.6902
     9.8334  10.0162

          k =-0.5005 0.7214 0.0000 ( 10771 PWs)   bands (ev):

   -42.7342  -2.2241  -2.1496  -2.0698  -1.9552  -1.8855  -1.8372  -1.7285
    -1.5882  -1.4769  -1.2274  -1.0655  -0.8348  -0.7410  -0.6414  -0.5124
    -0.4092  -0.1367  -0.0403   0.0336   0.2917   0.3492   0.4651   0.5498
     0.6474   0.6968   0.7471   0.8671   0.9647   1.0124   1.1505   3.4676
     3.7247   4.1561   4.8565   5.6923   6.5773   7.1672   7.9163   8.2712
     8.7520   9.3552

          k =-0.5005-0.2893 0.0000 ( 10756 PWs)   bands (ev):

   -42.7342  -2.4120  -2.3586  -2.2685  -2.1902  -2.0768  -1.9988  -1.9872
    -1.8396  -1.5671  -1.1581  -0.9833  -0.8414  -0.8396  -0.5671  -0.3835
    -0.2000  -0.0899   0.1403   0.2357   0.5298   0.6404   0.7645   0.9078
     0.9790   0.9942   1.0082   1.0400   1.0944   1.1328   1.1884   3.6237
     4.0924   4.5848   4.9379   5.1708   5.3615   5.5165   7.6703   8.0874
     8.5635   8.9196

     the Fermi energy is     3.9356 ev

!    total energy              =    -520.63781648 Ry
     estimated scf accuracy    <          9.2E-09 Ry
     smearing contrib. (-TS)   =      -0.00158414 Ry
     internal energy E=F+TS    =    -520.63623234 Ry

     The total energy is F=E-TS. E is the sum of the following terms:
     one-electron contribution =   -6758.08592690 Ry
     hartree contribution      =    3430.45746654 Ry
     xc contribution           =    -137.66213394 Ry
     ewald contribution        =    2944.84961363 Ry
     DFT-D3 Dispersion         =      -0.19525167 Ry

     convergence has been achieved in   7 iterations

     negative rho (up, down):  9.685E-06 0.000E+00

     Forces acting on atoms (cartesian axes, Ry/au):

     atom    1 type  2   force =     0.00002975    0.00001696   -0.00067064
     atom    2 type  2   force =    -0.00003374   -0.00001905    0.00077202
     atom    3 type  2   force =     0.00000640    0.00000334   -0.00013000
     atom    4 type  2   force =     0.00000470    0.00000335    0.00010690
     atom    5 type  2   force =    -0.00001885   -0.00001103    0.00095195
     atom    6 type  2   force =    -0.00003528   -0.00002071   -0.00044534
     atom    7 type  1   force =     0.00004702    0.00002715   -0.00058489
     The non-local contrib.  to forces
     atom    1 type  2   force =     0.00279184    0.00161382   -0.06384291
     atom    2 type  2   force =     0.00162812    0.00094154   -0.03720200
     atom    3 type  2   force =    -0.00014308   -0.00008290    0.00330683
     atom    4 type  2   force =    -0.00004400   -0.00002530    0.00093555
     atom    5 type  2   force =    -0.00042924   -0.00024826    0.00999220
     atom    6 type  2   force =    -0.00029152   -0.00016818    0.00734475
     atom    7 type  1   force =    -0.00226448   -0.00131078    0.05195185
     The ionic contribution  to forces
     atom    1 type  2   force =     7.21311341    4.16979509 -164.95762824
     atom    2 type  2   force =     4.49830910    2.60041829 -102.87290812
     atom    3 type  2   force =     1.72774278    0.99877735  -39.51181546
     atom    4 type  2   force =    -1.03691113   -0.59941271   23.71939561
     atom    5 type  2   force =    -3.80021502   -2.19685558   86.92133472
     atom    6 type  2   force =    -6.51722541   -3.76752434  149.01631413
     atom    7 type  1   force =    -2.08481372   -1.20519810   47.68530737
     The local contribution  to forces
     atom    1 type  2   force =    -7.21538578   -4.17110901  165.00960401
     atom    2 type  2   force =    -4.49976646   -2.60126056  102.90620296
     atom    3 type  2   force =    -1.72758268   -0.99868498   39.50813536
     atom    4 type  2   force =     1.03694890    0.59943501  -23.71993301
     atom    5 type  2   force =     3.80050171    2.19702128  -86.92743192
     atom    6 type  2   force =     6.51738515    3.76761585 -149.02198183
     atom    7 type  1   force =     2.08700828    1.20646836  -47.73522319
     The core correction contribution to forces
     atom    1 type  2   force =    -0.00025331   -0.00014641    0.00579098
     atom    2 type  2   force =    -0.00002423   -0.00001404    0.00055529
     atom    3 type  2   force =     0.00000558    0.00000326   -0.00012913
     atom    4 type  2   force =    -0.00000511   -0.00000301    0.00008610
     atom    5 type  2   force =     0.00003047    0.00001764   -0.00075288
     atom    6 type  2   force =    -0.00009988   -0.00005770    0.00243292
     atom    7 type  1   force =     0.00000000    0.00000000    0.00000000
     The Hubbard contrib.    to forces
     atom    1 type  2   force =     0.00000000    0.00000000    0.00000000
     atom    2 type  2   force =     0.00000000    0.00000000    0.00000000
     atom    3 type  2   force =     0.00000000    0.00000000    0.00000000
     atom    4 type  2   force =     0.00000000    0.00000000    0.00000000
     atom    5 type  2   force =     0.00000000    0.00000000    0.00000000
     atom    6 type  2   force =     0.00000000    0.00000000    0.00000000
     atom    7 type  1   force =     0.00000000    0.00000000    0.00000000
     The SCF correction term to forces
     atom    1 type  2   force =    -0.00000784   -0.00000447    0.00018035
     atom    2 type  2   force =    -0.00000491   -0.00000293    0.00011294
     atom    3 type  2   force =     0.00000555    0.00000310   -0.00012393
     atom    4 type  2   force =     0.00000488    0.00000289   -0.00010355
     atom    5 type  2   force =    -0.00000699   -0.00000411    0.00016567
     atom    6 type  2   force =    -0.00000657   -0.00000372    0.00003473
     atom    7 type  1   force =     0.00000294    0.00000170   -0.00004555

     DFT-D3 dispersion contribution to forces:
     atom    1 type  2   force =    -0.00022895   -0.00013233    0.00523411
     atom    2 type  2   force =    -0.00017573   -0.00010162    0.00401990
     atom    3 type  2   force =    -0.00002213   -0.00001277    0.00050528
     atom    4 type  2   force =     0.00001079    0.00000620   -0.00026485
     atom    5 type  2   force =     0.00009984    0.00005772   -0.00234691
     atom    6 type  2   force =     0.00020257    0.00011709   -0.00458110
     atom    7 type  1   force =     0.00011361    0.00006570   -0.00256643

     Total force =     0.001590     Total SCF correction =     0.000320
     SCF correction compared to forces is large: reduce conv_thr to get better values


     Computing stress (Cartesian axis) and pressure


     negative rho (up, down):  9.685E-06 0.000E+00
          total   stress  (Ry/bohr**3)                   (kbar)     P=       -7.72
  -0.00004389   0.00000002   0.00000105           -6.46        0.00        0.15
   0.00000002  -0.00004391   0.00000061            0.00       -6.46        0.09
   0.00000105   0.00000061  -0.00006956            0.15        0.09      -10.23

     Energy error            =      7.6E-06 Ry
     Gradient error          =      9.5E-04 Ry/Bohr

     bfgs converged in  16 scf cycles and  15 bfgs steps
     (criteria: energy <  1.0E-04 Ry, force <  1.0E-03 Ry/Bohr)

     End of BFGS Geometry Optimization

     Final energy             =    -520.6378164797 Ry

     File ./Ag_mp-124_111_hollow_1/Ag_mp-124_111_hollow_1.bfgs deleted, as requested
Begin final coordinates

ATOMIC_POSITIONS (angstrom)
Ag            1.9456995325        0.5660824902       10.2157631202
Ag            1.8409316823        2.1816373968       12.6125035125
Ag            3.1903843274        1.2856090101       14.9693981413
Ag            1.6400185751        0.3893551919       17.2083956158
Ag            1.5370955914        2.0059968284       19.5725070511
Ag            2.8858360007        1.1095582583       21.9807118047
Li            1.3453452885        0.2190091040       23.9695375338
End final coordinates



     Writing all to output data dir ./Ag_mp-124_111_hollow_1/Ag_mp-124_111_hollow_1.save/

     init_run     :      6.24s CPU      6.75s WALL (       1 calls)
     electrons    :     58.37s CPU     65.66s WALL (      16 calls)
     update_pot   :      7.61s CPU      8.06s WALL (      15 calls)
     forces       :      5.79s CPU      6.20s WALL (      16 calls)
     force_dftd3  :      0.12s CPU      0.22s WALL (      16 calls)
     stress       :     17.60s CPU     18.06s WALL (      16 calls)
     stres_dftd3  :      0.13s CPU      0.16s WALL (      16 calls)

     Called by init_run:
     wfcinit      :      0.41s CPU      0.65s WALL (       1 calls)
     potinit      :      1.97s CPU      1.99s WALL (       1 calls)
     hinit0       :      3.79s CPU      3.99s WALL (       1 calls)

     Called by electrons:
     c_bands      :     47.69s CPU     51.83s WALL (     153 calls)
     sum_band     :      7.42s CPU      8.39s WALL (     153 calls)
     v_of_rho     :      1.50s CPU      2.07s WALL (     159 calls)
     newd         :      1.26s CPU      1.31s WALL (     159 calls)
     mix_rho      :      0.20s CPU      0.20s WALL (     153 calls)
     energy_dftd3 :      0.04s CPU      0.04s WALL (      16 calls)

     Called by c_bands:
     init_us_2    :      0.39s CPU      0.42s WALL (    3051 calls)
     init_us_2:cp :      0.38s CPU      0.42s WALL (    3051 calls)
     cegterg      :     43.75s CPU     46.33s WALL (    1377 calls)

     Called by *egterg:
     cdiaghg      :     11.19s CPU     11.33s WALL (    5215 calls)
     h_psi        :     25.94s CPU     28.12s WALL (    5449 calls)
     s_psi        :      1.23s CPU      1.26s WALL (    5449 calls)
     g_psi        :      0.11s CPU      0.11s WALL (    4063 calls)

     Called by h_psi:
     h_psi:calbec :      2.10s CPU      2.43s WALL (    5449 calls)
     vloc_psi     :     22.57s CPU     24.33s WALL (    5449 calls)
     add_vuspsi   :      1.17s CPU      1.26s WALL (    5449 calls)

     General routines
     calbec       :      3.95s CPU      4.42s WALL (    7546 calls)
     fft          :      5.69s CPU      6.72s WALL (    2460 calls)
     ffts         :      1.85s CPU      2.23s WALL (     312 calls)
     fftw         :     23.69s CPU     25.52s WALL (  347154 calls)
     interpolate  :      1.86s CPU      1.99s WALL (     159 calls)

     Parallel routines

     PWSCF        :   1m36.19s CPU   1m46.40s WALL


   This run was terminated on:   5:21: 3  24Jul2025            

=------------------------------------------------------------------------------=
   JOB DONE.
=------------------------------------------------------------------------------=
