
     Program PWSCF v.7.2 starts on 18Jul2025 at 11:23: 0 

     This program is part of the open-source Quantum ESPRESSO suite
     for quantum simulation of materials; please cite
         "P. Giannozzi et al., J. Phys.:Condens. Matter 21 395502 (2009);
         "P. Giannozzi et al., J. Phys.:Condens. Matter 29 465901 (2017);
         "P. Giannozzi et al., J. Chem. Phys. 152 154105 (2020);
          URL http://www.quantum-espresso.org", 
     in publications or presentations arising from this work. More details at
     http://www.quantum-espresso.org/quote

     Parallel version (MPI & OpenMP), running on     128 processor cores
     Number of MPI processes:               128
     Threads/MPI process:                     1

     MPI processes distributed on     2 nodes
     241561 MiB available memory on the printing compute node when the environment starts

     Reading input from Ag_mp-124_110.in

     Current dimensions of program PWSCF are:
     Max number of different atomic species (ntypx) = 10
     Max number of k-points (npk) =  40000
     Max angular momentum in pseudopotentials (lmaxx) =  4
     Message from routine iosys:
     restart disabled: needed files not found

     K-points division:     npool     =       4
     R & G space division:  proc/nbgrp/npool/nimage =      32
     Subspace diagonalization in iterative solution of the eigenvalue problem:
     a serial algorithm will be used


     Parallelization info
     --------------------
     sticks:   dense  smooth     PW     G-vecs:    dense   smooth      PW
     Min          52      23      7                12906     3761     603
     Max          53      24      8                12949     3784     633
     Sum        1693     741    227               413923   120671   19731

     Using Slab Decomposition



     bravais-lattice index     =            0
     lattice parameter (alat)  =       5.4844  a.u.
     unit-cell volume          =    2190.9204 (a.u.)^3
     number of atoms/cell      =            6
     number of atomic types    =            1
     number of electrons       =        66.00
     number of Kohn-Sham states=           40
     kinetic-energy cutoff     =      55.0000  Ry
     charge density cutoff     =     500.0000  Ry
     scf convergence threshold =      1.0E-06
     mixing beta               =       0.3000
     number of iterations used =            8  plain     mixing
     energy convergence thresh.=      1.0E-04
     force convergence thresh. =      1.0E-03
     Exchange-correlation= PBE
                           (   1   4   3   4   0   0   0)
     nstep                     =          500


     celldm(1)=   5.484398  celldm(2)=   0.000000  celldm(3)=   0.000000
     celldm(4)=   0.000000  celldm(5)=   0.000000  celldm(6)=   0.000000

     crystal axes: (cart. coord. in units of alat)
               a(1) = (   1.000000   0.000000   0.000000 )  
               a(2) = (   0.000000   1.414214   0.000000 )  
               a(3) = (   0.000000   0.000000   9.391281 )  

     reciprocal axes: (cart. coord. in units 2 pi/alat)
               b(1) = (  1.000000 -0.000000  0.000000 )  
               b(2) = (  0.000000  0.707107  0.000000 )  
               b(3) = ( -0.000000 -0.000000  0.106482 )  


     PseudoPot. # 1 for Ag read from file:
     /home/ecastro/trabajo_final/pseudos/Ag.pbe-n-rrkjus_psl.1.0.0.UPF
     MD5 check sum: 81cdf87bacf708300839c66ee23ce017
     Pseudo is Ultrasoft + core correction, Zval = 11.0
     Generated using &quot;atomic&quot; code by A. Dal Corso  v.6.2.2
     Using radial grid of 1237 points,  6 beta functions with: 
                l(1) =   0
                l(2) =   0
                l(3) =   1
                l(4) =   1
                l(5) =   2
                l(6) =   2
     Q(r) pseudized with 0 coefficients 


     atomic species   valence    mass     pseudopotential
        Ag            11.00   107.86820     Ag( 1.00)

     No symmetry found



   Cartesian axes

     site n.     atom                  positions (alat units)
         1           Ag  tau(   1) = (   0.7500000   1.0606602   5.4456403  )
         2           Ag  tau(   2) = (   0.2500000   0.3535534   5.9456403  )
         3           Ag  tau(   3) = (   0.7500000   1.0606602   4.4456403  )
         4           Ag  tau(   4) = (   0.2500000   0.3535534   4.9456403  )
         5           Ag  tau(   5) = (   0.7500000   1.0606602   3.4456403  )
         6           Ag  tau(   6) = (   0.2500000   0.3535534   3.9456403  )

     --------------------------------------------
     DFT-D3 Dispersion Correction (no 3-body):
     --------------------------------------------
       Reference C6 values for interpolation: 

         atom   Coordination number   C6
         Ag         0.000           853.49
         Ag         0.968           537.23

       Values used:

         atom   Coordination number  R0_AB[au]  C6      C8
         Ag         7.952            3.147    537.23  47741.54
         Ag         5.094            3.147    537.23  47741.54
         Ag         8.704            3.147    537.23  47741.54
         Ag         8.704            3.147    537.23  47741.54
         Ag         5.094            3.147    537.23  47741.54
         Ag         7.952            3.147    537.23  47741.54

         Molecular C6 ( Ry / a.u.^6 ) =     19340.14


     number of k points=    34  Methfessel-Paxton smearing, width (Ry)=  0.0300
                       cart. coord. in units 2pi/alat
        k(    1) = (   0.0000000   0.0000000   0.0000000), wk =   0.0312500
        k(    2) = (   0.0000000   0.0883883   0.0000000), wk =   0.0625000
        k(    3) = (   0.0000000   0.1767767   0.0000000), wk =   0.0625000
        k(    4) = (   0.0000000   0.2651650   0.0000000), wk =   0.0625000
        k(    5) = (   0.0000000  -0.3535534   0.0000000), wk =   0.0312500
        k(    6) = (   0.1250000  -0.0000000   0.0000000), wk =   0.0625000
        k(    7) = (   0.1250000   0.0883883   0.0000000), wk =   0.0625000
        k(    8) = (   0.1250000   0.1767767   0.0000000), wk =   0.0625000
        k(    9) = (   0.1250000   0.2651650   0.0000000), wk =   0.0625000
        k(   10) = (   0.1250000  -0.3535534   0.0000000), wk =   0.0625000
        k(   11) = (   0.1250000  -0.2651650   0.0000000), wk =   0.0625000
        k(   12) = (   0.1250000  -0.1767767   0.0000000), wk =   0.0625000
        k(   13) = (   0.1250000  -0.0883883   0.0000000), wk =   0.0625000
        k(   14) = (   0.2500000  -0.0000000   0.0000000), wk =   0.0625000
        k(   15) = (   0.2500000   0.0883883   0.0000000), wk =   0.0625000
        k(   16) = (   0.2500000   0.1767767   0.0000000), wk =   0.0625000
        k(   17) = (   0.2500000   0.2651650   0.0000000), wk =   0.0625000
        k(   18) = (   0.2500000  -0.3535534   0.0000000), wk =   0.0625000
        k(   19) = (   0.2500000  -0.2651650   0.0000000), wk =   0.0625000
        k(   20) = (   0.2500000  -0.1767767   0.0000000), wk =   0.0625000
        k(   21) = (   0.2500000  -0.0883883   0.0000000), wk =   0.0625000
        k(   22) = (   0.3750000  -0.0000000   0.0000000), wk =   0.0625000
        k(   23) = (   0.3750000   0.0883883   0.0000000), wk =   0.0625000
        k(   24) = (   0.3750000   0.1767767   0.0000000), wk =   0.0625000
        k(   25) = (   0.3750000   0.2651650   0.0000000), wk =   0.0625000
        k(   26) = (   0.3750000  -0.3535534   0.0000000), wk =   0.0625000
        k(   27) = (   0.3750000  -0.2651650   0.0000000), wk =   0.0625000
        k(   28) = (   0.3750000  -0.1767767   0.0000000), wk =   0.0625000
        k(   29) = (   0.3750000  -0.0883883   0.0000000), wk =   0.0625000
        k(   30) = (  -0.5000000   0.0000000   0.0000000), wk =   0.0312500
        k(   31) = (  -0.5000000   0.0883883   0.0000000), wk =   0.0625000
        k(   32) = (  -0.5000000   0.1767767   0.0000000), wk =   0.0625000
        k(   33) = (  -0.5000000   0.2651650   0.0000000), wk =   0.0625000
        k(   34) = (  -0.5000000  -0.3535534   0.0000000), wk =   0.0312500

     Dense  grid:   413923 G-vectors     FFT dimensions: (  40,  60, 375)

     Smooth grid:   120671 G-vectors     FFT dimensions: (  25,  40, 243)

     Estimated max dynamical RAM per process >      22.83 MB

     Estimated total dynamical RAM >       2.56 GB
     Cannot read rho : file not found

     Initial potential from superposition of free atoms

     starting charge      65.9976, renormalised to      66.0000

     negative rho (up, down):  5.247E-05 0.000E+00
     Message from routine qexsd_readschema :
     xml data file ./Ag_110/Ag_110.save/data-file-schema.xml not found
     Cannot read wfcs: file not found
     Starting wfcs are   54 randomized atomic wfcs

     total cpu time spent up to now is        5.5 secs

     per-process dynamical memory:   174.1 Mb

     Self-consistent Calculation

     iteration #  1     ecut=    55.00 Ry     beta= 0.30
     Davidson diagonalization with overlap
     c_bands:  1 eigenvalues not converged
     c_bands:  2 eigenvalues not converged
     c_bands:  1 eigenvalues not converged
     c_bands:  2 eigenvalues not converged
     c_bands:  1 eigenvalues not converged
     c_bands:  1 eigenvalues not converged
     ethr =  1.00E-05,  avg # of iterations = 16.6

     negative rho (up, down):  4.314E-05 0.000E+00

     total cpu time spent up to now is       10.5 secs

     total energy              =    -505.63625973 Ry
     estimated scf accuracy    <       0.15284964 Ry

     iteration #  2     ecut=    55.00 Ry     beta= 0.30
     Davidson diagonalization with overlap
     ethr =  2.32E-04,  avg # of iterations =  6.4

     negative rho (up, down):  3.703E-05 0.000E+00

     total cpu time spent up to now is       12.0 secs

     total energy              =    -505.64228889 Ry
     estimated scf accuracy    <       0.30740782 Ry

     iteration #  3     ecut=    55.00 Ry     beta= 0.30
     Davidson diagonalization with overlap
     ethr =  2.32E-04,  avg # of iterations =  2.1

     negative rho (up, down):  2.681E-05 0.000E+00

     total cpu time spent up to now is       13.0 secs

     total energy              =    -505.67762086 Ry
     estimated scf accuracy    <       0.00959094 Ry

     iteration #  4     ecut=    55.00 Ry     beta= 0.30
     Davidson diagonalization with overlap
     ethr =  1.45E-05,  avg # of iterations =  7.4

     negative rho (up, down):  2.339E-05 0.000E+00

     total cpu time spent up to now is       13.9 secs

     total energy              =    -505.67884114 Ry
     estimated scf accuracy    <       0.00075997 Ry

     iteration #  5     ecut=    55.00 Ry     beta= 0.30
     Davidson diagonalization with overlap
     ethr =  1.15E-06,  avg # of iterations =  3.9

     negative rho (up, down):  2.456E-05 0.000E+00

     total cpu time spent up to now is       14.6 secs

     total energy              =    -505.67896563 Ry
     estimated scf accuracy    <       0.00013011 Ry

     iteration #  6     ecut=    55.00 Ry     beta= 0.30
     Davidson diagonalization with overlap
     ethr =  1.97E-07,  avg # of iterations =  3.3

     negative rho (up, down):  2.171E-05 0.000E+00

     total cpu time spent up to now is       15.3 secs

     total energy              =    -505.67897743 Ry
     estimated scf accuracy    <       0.00002201 Ry

     iteration #  7     ecut=    55.00 Ry     beta= 0.30
     Davidson diagonalization with overlap
     ethr =  3.33E-08,  avg # of iterations =  3.5

     negative rho (up, down):  2.026E-05 0.000E+00

     total cpu time spent up to now is       16.0 secs

     total energy              =    -505.67897692 Ry
     estimated scf accuracy    <       0.00015207 Ry

     iteration #  8     ecut=    55.00 Ry     beta= 0.30
     Davidson diagonalization with overlap
     ethr =  3.33E-08,  avg # of iterations =  1.5

     negative rho (up, down):  1.943E-05 0.000E+00

     total cpu time spent up to now is       16.6 secs

     total energy              =    -505.67898500 Ry
     estimated scf accuracy    <       0.00000196 Ry

     iteration #  9     ecut=    55.00 Ry     beta= 0.30
     Davidson diagonalization with overlap
     ethr =  2.96E-09,  avg # of iterations =  3.3

     negative rho (up, down):  1.758E-05 0.000E+00

     total cpu time spent up to now is       17.1 secs

     End of self-consistent calculation

          k = 0.0000 0.0000 0.0000 ( 15163 PWs)   bands (ev):

    -6.0294  -4.9468  -4.8983  -4.6763  -4.5101  -4.1090  -4.0472  -3.7853
    -3.7551  -3.7540  -3.4806  -3.3868  -3.3677  -3.3320  -3.1589  -3.0579
    -3.0120  -3.0107  -2.7720  -2.7674  -2.5416  -2.5223  -2.4836  -2.4540
    -2.3859  -2.1296  -2.0766  -2.0580  -1.8236  -1.7908  -1.7088  -1.5480
    -1.0715   0.7310   2.7940   3.6353   4.6761   5.2390   5.5821   5.8874

          k = 0.0000 0.0884 0.0000 ( 15115 PWs)   bands (ev):

    -5.8831  -4.9008  -4.8670  -4.6407  -4.5134  -4.2713  -4.1095  -3.8377
    -3.6311  -3.5123  -3.5033  -3.4410  -3.3584  -3.2063  -3.1248  -3.1247
    -2.9306  -2.9305  -2.8857  -2.7011  -2.5266  -2.5131  -2.4998  -2.4471
    -2.3274  -2.1599  -2.1489  -1.9227  -1.8683  -1.8654  -1.6694  -1.6008
    -1.0455   0.8296   2.6200   2.8924   4.3387   4.7656   5.3764   5.8997

          k = 0.0000 0.1768 0.0000 ( 15114 PWs)   bands (ev):

    -5.4767  -4.8788  -4.7403  -4.6530  -4.5155  -4.3099  -4.1622  -3.7348
    -3.5996  -3.5761  -3.3717  -3.3048  -3.2668  -3.2627  -3.0911  -3.0875
    -3.0171  -2.8243  -2.7973  -2.5982  -2.5120  -2.4472  -2.4355  -2.3522
    -2.2269  -2.2060  -2.1110  -2.0279  -1.8841  -1.7900  -1.7085  -1.6495
    -0.9132   0.8014   1.2380   2.4543   3.1232   4.0522   5.4897   5.7621

          k = 0.0000 0.2652 0.0000 ( 15152 PWs)   bands (ev):

    -4.9852  -4.9107  -4.7740  -4.6084  -4.2952  -4.2181  -4.1211  -3.7931
    -3.5892  -3.5357  -3.3579  -3.3434  -3.3415  -3.2088  -3.0655  -3.0485
    -2.9052  -2.9011  -2.7179  -2.6507  -2.5658  -2.3681  -2.3084  -2.1532
    -2.1062  -2.0087  -1.9939  -1.9280  -1.8278  -1.7963  -1.6981  -1.6810
    -0.6905  -0.4665   0.7987   1.6500   2.4753   3.1460   5.8544   6.1336

          k = 0.0000-0.3536 0.0000 ( 15118 PWs)   bands (ev):

    -4.9220  -4.9220  -4.5983  -4.5983  -4.1507  -4.1505  -3.9782  -3.9782
    -3.5206  -3.5205  -3.3826  -3.3826  -3.3306  -3.3306  -2.9802  -2.9802
    -2.8695  -2.8694  -2.7959  -2.7959  -2.5118  -2.5117  -2.0028  -2.0027
    -1.9886  -1.9886  -1.8659  -1.8659  -1.7970  -1.7968  -1.6963  -1.6962
    -0.8655  -0.8655   0.8425   0.8426   2.5958   2.5959   6.1709   6.1709

          k = 0.1250-0.0000 0.0000 ( 15077 PWs)   bands (ev):

    -5.7230  -4.7715  -4.6782  -4.5511  -4.3292  -4.0592  -3.9725  -3.9661
    -3.8386  -3.5551  -3.5446  -3.5261  -3.4253  -3.3943  -3.2103  -3.1770
    -3.0299  -2.9792  -2.6529  -2.6282  -2.5997  -2.4753  -2.4233  -2.3924
    -2.3433  -2.1955  -2.0591  -1.9727  -1.9511  -1.9464  -1.7066  -1.5677
    -0.9261   1.0171   3.1191   4.3147   4.9743   5.5197   6.0593   6.1857

          k = 0.1250 0.0884 0.0000 ( 15111 PWs)   bands (ev):

    -5.5848  -4.7098  -4.6446  -4.5337  -4.2908  -4.2564  -3.9741  -3.8509
    -3.7503  -3.6209  -3.5617  -3.4145  -3.3529  -3.2400  -3.1973  -3.1592
    -3.0992  -2.9921  -2.7823  -2.6807  -2.6229  -2.5251  -2.4315  -2.3769
    -2.2320  -2.2031  -2.1054  -1.9405  -1.8970  -1.8846  -1.7494  -1.6369
    -0.8426   1.1464   3.2219   3.2351   4.7489   5.0858   5.6595   6.2185

          k = 0.1250 0.1768 0.0000 ( 15135 PWs)   bands (ev):

    -5.2023  -4.6640  -4.5013  -4.4790  -4.4438  -4.1570  -3.9671  -3.7967
    -3.6657  -3.5837  -3.4518  -3.4003  -3.2194  -3.1981  -3.1523  -3.1012
    -3.0374  -3.0277  -2.8100  -2.7263  -2.6637  -2.6270  -2.5913  -2.3030
    -2.2561  -2.1617  -2.0904  -1.8872  -1.8418  -1.8066  -1.7672  -1.7563
    -0.5103   1.3169   1.6872   2.8685   3.5174   4.4466   5.7328   6.0459

          k = 0.1250 0.2652 0.0000 ( 15153 PWs)   bands (ev):

    -4.7444  -4.6980  -4.5647  -4.3467  -4.2134  -4.0579  -3.9526  -3.8043
    -3.5942  -3.5928  -3.4032  -3.3686  -3.2209  -3.1951  -3.1341  -3.0877
    -3.0597  -3.0296  -2.7420  -2.7158  -2.6655  -2.6051  -2.4422  -2.3459
    -2.3173  -2.1382  -2.1347  -1.9657  -1.8516  -1.8176  -1.8121  -1.2564
    -0.1324   0.1219   1.2611   2.2009   2.8185   3.6059   6.0600   6.3962

          k = 0.1250-0.3536 0.0000 ( 15168 PWs)   bands (ev):

    -4.7094  -4.7094  -4.3113  -4.3113  -4.0866  -4.0866  -3.8505  -3.8503
    -3.5791  -3.5791  -3.4183  -3.4183  -3.2743  -3.2743  -3.0936  -3.0936
    -3.0195  -3.0195  -2.7034  -2.7034  -2.6746  -2.6745  -2.2627  -2.2627
    -2.2323  -2.2322  -2.0835  -2.0835  -1.9025  -1.9025  -1.3111  -1.3111
    -0.2905  -0.2905   1.4070   1.4070   3.0286   3.0287   6.3833   6.3834

          k = 0.1250-0.2652 0.0000 ( 15153 PWs)   bands (ev):

    -4.7444  -4.6980  -4.5647  -4.3467  -4.2134  -4.0579  -3.9526  -3.8043
    -3.5942  -3.5928  -3.4032  -3.3686  -3.2209  -3.1951  -3.1341  -3.0877
    -3.0597  -3.0296  -2.7420  -2.7158  -2.6655  -2.6051  -2.4422  -2.3459
    -2.3173  -2.1382  -2.1347  -1.9657  -1.8516  -1.8176  -1.8121  -1.2564
    -0.1324   0.1219   1.2611   2.2009   2.8185   3.6059   6.0598   6.3963

          k = 0.1250-0.1768 0.0000 ( 15135 PWs)   bands (ev):

    -5.2023  -4.6640  -4.5013  -4.4790  -4.4438  -4.1570  -3.9671  -3.7967
    -3.6657  -3.5837  -3.4518  -3.4003  -3.2194  -3.1981  -3.1523  -3.1012
    -3.0374  -3.0277  -2.8100  -2.7263  -2.6637  -2.6270  -2.5913  -2.3030
    -2.2561  -2.1617  -2.0904  -1.8872  -1.8418  -1.8066  -1.7672  -1.7563
    -0.5103   1.3169   1.6872   2.8685   3.5174   4.4466   5.7328   6.0459

          k = 0.1250-0.0884 0.0000 ( 15111 PWs)   bands (ev):

    -5.5848  -4.7098  -4.6446  -4.5337  -4.2908  -4.2564  -3.9741  -3.8509
    -3.7503  -3.6209  -3.5617  -3.4145  -3.3529  -3.2400  -3.1973  -3.1592
    -3.0992  -2.9921  -2.7823  -2.6807  -2.6229  -2.5251  -2.4315  -2.3769
    -2.2320  -2.2031  -2.1054  -1.9405  -1.8970  -1.8846  -1.7494  -1.6369
    -0.8426   1.1464   3.2219   3.2351   4.7489   5.0857   5.6595   6.2176

          k = 0.2500-0.0000 0.0000 ( 15101 PWs)   bands (ev):

    -4.9747  -4.5622  -4.4781  -4.4448  -4.3693  -4.3469  -4.1550  -3.9327
    -3.7625  -3.7324  -3.6483  -3.4676  -3.2846  -3.1508  -3.0784  -2.9760
    -2.6901  -2.6753  -2.6303  -2.5631  -2.5401  -2.3810  -2.3546  -2.3525
    -2.1783  -2.1271  -2.0432  -2.0172  -1.9651  -1.8702  -1.6059  -1.5810
    -0.3924   1.8122   3.9764   5.7760   5.9759   6.3499   6.8601   7.0951

          k = 0.2500 0.0884 0.0000 ( 15103 PWs)   bands (ev):

    -4.9003  -4.5215  -4.4586  -4.4179  -4.2883  -4.2334  -4.1366  -3.9131
    -3.7642  -3.6750  -3.5990  -3.4579  -3.2421  -3.1892  -3.0745  -2.9979
    -2.9037  -2.7283  -2.6237  -2.5970  -2.5586  -2.4671  -2.4222  -2.3526
    -2.2045  -2.1128  -2.0699  -2.0179  -1.7983  -1.7758  -1.6632  -1.6358
    -0.1639   1.9968   4.1194   4.5936   5.8252   5.9299   6.5023   6.9874

          k = 0.2500 0.1768 0.0000 ( 15121 PWs)   bands (ev):

    -4.7225  -4.4329  -4.4160  -4.2896  -4.0683  -4.0367  -4.0088  -3.8234
    -3.7464  -3.5872  -3.5577  -3.4513  -3.3401  -3.1620  -3.0684  -3.0515
    -2.9188  -2.9100  -2.7215  -2.6697  -2.6252  -2.5710  -2.5190  -2.4316
    -2.2715  -2.2311  -2.1262  -1.9414  -1.7978  -1.7867  -1.7551  -1.1844
     0.4317   2.3857   2.7934   3.8307   4.6111   5.4985   6.4744   6.8908

          k = 0.2500 0.2652 0.0000 ( 15099 PWs)   bands (ev):

    -4.5323  -4.3211  -4.3161  -4.2700  -3.8682  -3.8475  -3.7307  -3.7202
    -3.6954  -3.6519  -3.5422  -3.4346  -3.3446  -3.1734  -3.0843  -3.0644
    -3.0019  -2.9062  -2.7890  -2.7579  -2.6945  -2.6618  -2.6551  -2.4902
    -2.3512  -2.2908  -2.2403  -1.9199  -1.8890  -1.8822  -1.4716  -0.3718
     0.9253   1.2023   2.2932   3.2303   3.9736   4.8341   6.7011   7.1859

          k = 0.2500-0.3536 0.0000 ( 15096 PWs)   bands (ev):

    -4.3805  -4.3804  -4.2332  -4.2332  -3.8759  -3.8759  -3.6781  -3.6781
    -3.5637  -3.5636  -3.4346  -3.4345  -3.2566  -3.2565  -3.1225  -3.1225
    -2.9710  -2.9709  -2.7755  -2.7754  -2.7094  -2.7092  -2.6781  -2.6780
    -2.3479  -2.3478  -2.1124  -2.1123  -1.9343  -1.9343  -0.4983  -0.4983
     0.7058   0.7058   2.5119   2.5119   4.2519   4.2519   7.0564   7.0564

          k = 0.2500-0.2652 0.0000 ( 15099 PWs)   bands (ev):

    -4.5323  -4.3211  -4.3161  -4.2700  -3.8682  -3.8475  -3.7307  -3.7202
    -3.6954  -3.6519  -3.5422  -3.4346  -3.3446  -3.1734  -3.0843  -3.0644
    -3.0019  -2.9062  -2.7890  -2.7579  -2.6945  -2.6618  -2.6551  -2.4902
    -2.3512  -2.2908  -2.2403  -1.9199  -1.8890  -1.8822  -1.4716  -0.3718
     0.9253   1.2023   2.2932   3.2303   3.9736   4.8341   6.7011   7.1859

          k = 0.2500-0.1768 0.0000 ( 15121 PWs)   bands (ev):

    -4.7225  -4.4329  -4.4160  -4.2896  -4.0683  -4.0367  -4.0088  -3.8234
    -3.7464  -3.5872  -3.5576  -3.4513  -3.3401  -3.1620  -3.0684  -3.0515
    -2.9188  -2.9100  -2.7215  -2.6697  -2.6252  -2.5710  -2.5190  -2.4316
    -2.2715  -2.2311  -2.1262  -1.9414  -1.7978  -1.7867  -1.7551  -1.1844
     0.4317   2.3857   2.7934   3.8307   4.6111   5.4985   6.4742   6.8904

          k = 0.2500-0.0884 0.0000 ( 15103 PWs)   bands (ev):

    -4.9003  -4.5215  -4.4586  -4.4179  -4.2883  -4.2334  -4.1366  -3.9131
    -3.7642  -3.6750  -3.5990  -3.4579  -3.2421  -3.1892  -3.0745  -2.9979
    -2.9037  -2.7283  -2.6237  -2.5970  -2.5586  -2.4671  -2.4222  -2.3526
    -2.2045  -2.1128  -2.0699  -2.0179  -1.7983  -1.7758  -1.6632  -1.6358
    -0.1639   1.9968   4.1195   4.5936   5.8251   5.9299   6.5022   6.9874

          k = 0.3750-0.0000 0.0000 ( 15069 PWs)   bands (ev):

    -4.7938  -4.7766  -4.6822  -4.6662  -4.3659  -4.2701  -4.2104  -4.1011
    -3.8504  -3.6156  -3.5182  -3.4778  -3.4391  -3.2376  -2.9248  -2.7332
    -2.5486  -2.5281  -2.4545  -2.2895  -2.2572  -2.1177  -1.9892  -1.9549
    -1.9328  -1.8547  -1.8390  -1.8206  -1.6323  -1.5682  -1.1740  -0.7223
     0.8557   2.9592   3.6956   4.3507   5.6374   6.1416   7.6747   8.1681

          k = 0.3750 0.0884 0.0000 ( 15052 PWs)   bands (ev):

    -4.7249  -4.7236  -4.6293  -4.6278  -4.4218  -4.1978  -4.1817  -4.1165
    -3.8535  -3.6780  -3.4570  -3.3359  -3.3190  -3.2289  -2.9302  -2.8387
    -2.6267  -2.5597  -2.4523  -2.4392  -2.2227  -2.1726  -2.1308  -1.9747
    -1.9652  -1.8695  -1.8119  -1.7973  -1.6996  -1.6457  -1.1702  -0.4858
     1.1533   3.2043   3.7814   4.5453   5.7777   6.3203   6.4564   7.3657

          k = 0.3750 0.1768 0.0000 ( 15049 PWs)   bands (ev):

    -4.6634  -4.5796  -4.5595  -4.4508  -4.3517  -4.3062  -4.0019  -3.9328
    -3.8003  -3.6715  -3.4052  -3.2409  -3.1913  -3.1241  -3.0823  -3.0323
    -2.7958  -2.7157  -2.5887  -2.4841  -2.3650  -2.2431  -2.2007  -2.0344
    -2.0216  -1.9237  -1.8207  -1.8035  -1.7557  -1.7531  -1.0559   0.1285
     1.8567   3.4490   3.8754   4.7290   5.2159   5.9183   6.1869   6.8323

          k = 0.3750 0.2652 0.0000 ( 15057 PWs)   bands (ev):

    -4.7124  -4.5751  -4.3582  -4.2713  -4.1827  -4.0594  -3.7916  -3.7616
    -3.7151  -3.6168  -3.5271  -3.3359  -3.2570  -3.2214  -3.1921  -3.1105
    -2.9701  -2.8887  -2.6607  -2.5791  -2.3728  -2.2461  -2.2302  -2.1555
    -2.0872  -1.9307  -1.8968  -1.8264  -1.8047  -1.7984  -0.4679   0.9859
     2.0843   2.6781   3.6242   4.4987   5.4857   5.9322   6.2792   6.7139

          k = 0.3750-0.3536 0.0000 ( 15056 PWs)   bands (ev):

    -4.6830  -4.6829  -4.1240  -4.1239  -3.9875  -3.9875  -3.8434  -3.8434
    -3.5421  -3.5420  -3.4753  -3.4752  -3.3816  -3.3815  -3.2577  -3.2577
    -2.8718  -2.8718  -2.6642  -2.6641  -2.4126  -2.4125  -2.1014  -2.1013
    -2.0340  -2.0339  -1.9374  -1.9373  -1.8114  -1.8114   0.6344   0.6345
     2.0835   2.0836   3.9323   3.9323   5.9840   5.9840   6.6502   6.6504

          k = 0.3750-0.2652 0.0000 ( 15057 PWs)   bands (ev):

    -4.7124  -4.5751  -4.3582  -4.2713  -4.1827  -4.0594  -3.7916  -3.7616
    -3.7151  -3.6168  -3.5271  -3.3359  -3.2570  -3.2214  -3.1921  -3.1105
    -2.9701  -2.8887  -2.6607  -2.5791  -2.3728  -2.2461  -2.2302  -2.1555
    -2.0872  -1.9307  -1.8968  -1.8264  -1.8047  -1.7984  -0.4679   0.9859
     2.0843   2.6781   3.6242   4.4987   5.4857   5.9322   6.2792   6.7139

          k = 0.3750-0.1768 0.0000 ( 15049 PWs)   bands (ev):

    -4.6634  -4.5796  -4.5595  -4.4508  -4.3517  -4.3062  -4.0019  -3.9328
    -3.8003  -3.6715  -3.4052  -3.2409  -3.1913  -3.1241  -3.0823  -3.0323
    -2.7958  -2.7157  -2.5887  -2.4841  -2.3650  -2.2431  -2.2007  -2.0344
    -2.0216  -1.9237  -1.8207  -1.8035  -1.7557  -1.7531  -1.0559   0.1285
     1.8567   3.4490   3.8754   4.7291   5.2159   5.9183   6.1869   6.8324

          k = 0.3750-0.0884 0.0000 ( 15052 PWs)   bands (ev):

    -4.7249  -4.7236  -4.6293  -4.6278  -4.4218  -4.1978  -4.1817  -4.1165
    -3.8535  -3.6780  -3.4570  -3.3359  -3.3190  -3.2289  -2.9302  -2.8387
    -2.6267  -2.5597  -2.4523  -2.4392  -2.2227  -2.1726  -2.1308  -1.9747
    -1.9652  -1.8695  -1.8119  -1.7973  -1.6996  -1.6457  -1.1702  -0.4858
     1.1533   3.2043   3.7814   4.5453   5.7777   6.3205   6.4564   7.3658

          k =-0.5000 0.0000 0.0000 ( 14992 PWs)   bands (ev):

    -4.8976  -4.8976  -4.7931  -4.7931  -4.2766  -4.2766  -4.2572  -4.2571
    -3.6331  -3.6331  -3.6004  -3.6002  -3.3728  -3.3728  -2.6478  -2.6477
    -2.5822  -2.5821  -2.3029  -2.3028  -2.0150  -2.0149  -1.8784  -1.8783
    -1.8542  -1.8541  -1.6524  -1.6523  -1.5962  -1.5962   0.9159   0.9159
     1.6746   1.6747   2.8074   2.8075   5.4465   5.4466   8.4981   8.4982

          k =-0.5000 0.0884 0.0000 ( 14998 PWs)   bands (ev):

    -4.8255  -4.8255  -4.7433  -4.7433  -4.3839  -4.3838  -4.1531  -4.1530
    -3.7957  -3.7955  -3.4265  -3.4265  -3.2894  -3.2893  -2.6684  -2.6683
    -2.6023  -2.6022  -2.3917  -2.3917  -2.0658  -2.0658  -1.9251  -1.9251
    -1.8664  -1.8664  -1.7225  -1.7225  -1.5898  -1.5897   0.9868   0.9869
     1.8745   1.8745   3.1038   3.1039   5.5886   5.5887   8.5089   8.5090

          k =-0.5000 0.1768 0.0000 ( 15026 PWs)   bands (ev):

    -4.6687  -4.6686  -4.6260  -4.6260  -4.4754  -4.4753  -3.9714  -3.9713
    -3.8292  -3.8290  -3.3829  -3.3829  -3.1650  -3.1649  -2.8601  -2.8600
    -2.6158  -2.6157  -2.5592  -2.5591  -2.1692  -2.1692  -2.0987  -2.0987
    -1.8976  -1.8976  -1.6593  -1.6592  -1.6026  -1.6025   1.1872   1.1872
     2.3870   2.3870   3.8547   3.8548   5.9881   5.9881   6.8142   6.8143

          k =-0.5000 0.2652 0.0000 ( 15032 PWs)   bands (ev):

    -4.7544  -4.7544  -4.3898  -4.3898  -4.2748  -4.2747  -3.8031  -3.8029
    -3.7484  -3.7484  -3.4508  -3.4507  -3.2348  -3.2347  -3.1189  -3.1189
    -2.7890  -2.7889  -2.6506  -2.6505  -2.2621  -2.2620  -2.0837  -2.0837
    -1.7915  -1.7914  -1.6628  -1.6628  -1.6119  -1.6118   1.4706   1.4706
     3.0556   3.0556   4.7852   4.7852   5.4522   5.4522   6.1833   6.1834

          k =-0.5000-0.3536 0.0000 ( 15032 PWs)   bands (ev):

    -4.8037  -4.8037  -4.1837  -4.1836  -4.1824  -4.1824  -3.8048  -3.8047
    -3.5537  -3.5536  -3.5484  -3.5482  -3.3994  -3.3994  -3.3025  -3.3025
    -2.7269  -2.7269  -2.7107  -2.7106  -2.3688  -2.3687  -2.0152  -2.0152
    -1.7367  -1.7366  -1.6877  -1.6877  -1.6016  -1.6015   1.6381   1.6381
     3.4876   3.4876   4.8759   4.8759   5.3435   5.3435   5.6781   5.6781

     the Fermi energy is     1.1837 ev

!    total energy              =    -505.67898536 Ry
     estimated scf accuracy    <       0.00000034 Ry
     smearing contrib. (-TS)   =      -0.00194644 Ry
     internal energy E=F+TS    =    -505.67703892 Ry

     The total energy is F=E-TS. E is the sum of the following terms:
     one-electron contribution =   -5175.15217830 Ry
     hartree contribution      =    2633.41445576 Ry
     xc contribution           =    -133.89469637 Ry
     ewald contribution        =    2170.10756548 Ry
     DFT-D3 Dispersion         =      -0.15218549 Ry

     convergence has been achieved in   9 iterations

     negative rho (up, down):  1.758E-05 0.000E+00

     Forces acting on atoms (cartesian axes, Ry/au):

     atom    1 type  1   force =    -0.00000229    0.00000101    0.00822195
     atom    2 type  1   force =    -0.00000326    0.00000080   -0.00730694
     atom    3 type  1   force =    -0.00000025    0.00000315    0.00251480
     atom    4 type  1   force =     0.00000244   -0.00000096   -0.00257688
     atom    5 type  1   force =    -0.00000019   -0.00000252    0.00727762
     atom    6 type  1   force =     0.00000355   -0.00000148   -0.00813055
     The non-local contrib.  to forces
     atom    1 type  1   force =    -0.00000240   -0.00000066    0.00758606
     atom    2 type  1   force =    -0.00000432    0.00000046    0.13519398
     atom    3 type  1   force =    -0.00000157    0.00000273   -0.02255349
     atom    4 type  1   force =     0.00000137   -0.00000072    0.02242412
     atom    5 type  1   force =    -0.00000119   -0.00000311   -0.13526436
     atom    6 type  1   force =     0.00000451   -0.00000118   -0.00760223
     The ionic contribution  to forces
     atom    1 type  1   force =     0.00000000   -0.00000000   73.94787549
     atom    2 type  1   force =     0.00000000    0.00000000  115.02981008
     atom    3 type  1   force =     0.00000000   -0.00000000  -24.23135326
     atom    4 type  1   force =    -0.00000000    0.00000000   24.23135326
     atom    5 type  1   force =     0.00000000   -0.00000000 -115.02981008
     atom    6 type  1   force =     0.00000000    0.00000000  -73.94787549
     The local contribution  to forces
     atom    1 type  1   force =    -0.00000076    0.00000105  -73.93941224
     atom    2 type  1   force =     0.00000099   -0.00000116 -115.16280138
     atom    3 type  1   force =    -0.00000006    0.00000125   24.25369069
     atom    4 type  1   force =     0.00000113    0.00000012  -24.25415463
     atom    5 type  1   force =    -0.00000026    0.00000235  115.16279802
     atom    6 type  1   force =     0.00000040    0.00000078   73.93915220
     The core correction contribution to forces
     atom    1 type  1   force =    -0.00000003   -0.00000002   -0.00269278
     atom    2 type  1   force =     0.00000004    0.00000003   -0.00606484
     atom    3 type  1   force =    -0.00000003    0.00000007    0.00004319
     atom    4 type  1   force =     0.00000004    0.00000001   -0.00004464
     atom    5 type  1   force =    -0.00000002    0.00000010    0.00606929
     atom    6 type  1   force =    -0.00000001    0.00000010    0.00269462
     The Hubbard contrib.    to forces
     atom    1 type  1   force =     0.00000000    0.00000000    0.00000000
     atom    2 type  1   force =     0.00000000    0.00000000    0.00000000
     atom    3 type  1   force =     0.00000000    0.00000000    0.00000000
     atom    4 type  1   force =     0.00000000    0.00000000    0.00000000
     atom    5 type  1   force =     0.00000000    0.00000000    0.00000000
     atom    6 type  1   force =     0.00000000    0.00000000    0.00000000
     The SCF correction term to forces
     atom    1 type  1   force =     0.00000045   -0.00000023    0.00005174
     atom    2 type  1   force =    -0.00000042    0.00000061    0.00058445
     atom    3 type  1   force =     0.00000000   -0.00000000    0.00000000
     atom    4 type  1   force =    -0.00000000   -0.00000000    0.00000000
     atom    5 type  1   force =     0.00000000   -0.00000000   -0.00000000
     atom    6 type  1   force =    -0.00000000   -0.00000000    0.00000000

     DFT-D3 dispersion contribution to forces:
     atom    1 type  1   force =     0.00000000    0.00000000   -0.00521906
     atom    2 type  1   force =    -0.00000000   -0.00000000   -0.00406198
     atom    3 type  1   force =    -0.00000000    0.00000000    0.00252288
     atom    4 type  1   force =    -0.00000000   -0.00000000   -0.00252288
     atom    5 type  1   force =    -0.00000000    0.00000000    0.00406198
     atom    6 type  1   force =     0.00000000   -0.00000000    0.00521906

     Total force =     0.011000     Total SCF correction =     0.000587


     Computing stress (Cartesian axis) and pressure


     negative rho (up, down):  1.758E-05 0.000E+00
          total   stress  (Ry/bohr**3)                   (kbar)     P=      -14.11
  -0.00010611   0.00000000   0.00000000          -15.61        0.00        0.00
   0.00000000  -0.00011927  -0.00000000            0.00      -17.54       -0.00
   0.00000000  -0.00000000  -0.00006247            0.00       -0.00       -9.19


     BFGS Geometry Optimization
     Energy error            =      0.0E+00 Ry
     Gradient error          =      8.2E-03 Ry/Bohr

     number of scf cycles    =   1
     number of bfgs steps    =   0

     energy             new  =    -505.6789853627 Ry

     new trust radius        =       0.0082219491 bohr
     new conv_thr            =       0.0000010000 Ry


ATOMIC_POSITIONS (angstrom)
Ag            2.1766624501        3.0782678023       15.8087872955
Ag            0.7255528260        1.0260895129       17.2516788687
Ag            2.1766636603        3.0782672692       12.9022182138    0   0   0
Ag            0.7255545534        1.0260890897       14.3533273207    0   0   0
Ag            2.1766636603        3.0782672692       10.0000000000    0   0   0
Ag            0.7255545534        1.0260890897       11.4511091069    0   0   0



     Writing config-only to output data dir ./Ag_110/Ag_110.save/
     NEW-OLD atomic charge density approx. for the potential

     negative rho (up, down):  1.786E-05 0.000E+00

     total cpu time spent up to now is       23.6 secs

     per-process dynamical memory:   184.7 Mb

     Self-consistent Calculation

     iteration #  1     ecut=    55.00 Ry     beta= 0.30
     Davidson diagonalization with overlap
     ethr =  1.00E-06,  avg # of iterations =  3.0

     Threshold (ethr) on eigenvalues was too large:
     Diagonalizing with lowered threshold

     Davidson diagonalization with overlap
     ethr =  3.91E-09,  avg # of iterations =  6.0

     negative rho (up, down):  1.779E-05 0.000E+00

     total cpu time spent up to now is       26.8 secs

     total energy              =    -505.67910138 Ry
     estimated scf accuracy    <       0.00000468 Ry

     iteration #  2     ecut=    55.00 Ry     beta= 0.30
     Davidson diagonalization with overlap
     ethr =  7.09E-09,  avg # of iterations =  2.0

     negative rho (up, down):  1.777E-05 0.000E+00

     total cpu time spent up to now is       27.8 secs

     total energy              =    -505.67909982 Ry
     estimated scf accuracy    <       0.00004332 Ry

     iteration #  3     ecut=    55.00 Ry     beta= 0.30
     Davidson diagonalization with overlap
     ethr =  7.09E-09,  avg # of iterations =  1.5

     negative rho (up, down):  1.775E-05 0.000E+00

     total cpu time spent up to now is       28.5 secs

     total energy              =    -505.67910233 Ry
     estimated scf accuracy    <       0.00000488 Ry

     iteration #  4     ecut=    55.00 Ry     beta= 0.30
     Davidson diagonalization with overlap
     ethr =  7.09E-09,  avg # of iterations =  1.0

     negative rho (up, down):  1.768E-05 0.000E+00

     total cpu time spent up to now is       28.9 secs

     End of self-consistent calculation

          k = 0.0000 0.0000 0.0000 ( 15163 PWs)   bands (ev):

    -6.0289  -4.9481  -4.9002  -4.6752  -4.5134  -4.1123  -4.0515  -3.7875
    -3.7558  -3.7523  -3.4818  -3.3858  -3.3683  -3.3340  -3.1625  -3.0596
    -3.0154  -3.0123  -2.7719  -2.7664  -2.5472  -2.5238  -2.4871  -2.4543
    -2.3893  -2.1321  -2.0775  -2.0612  -1.8251  -1.7926  -1.7087  -1.5483
    -1.0711   0.7301   2.7966   3.6348   4.6786   5.2432   5.5775   5.8920

          k = 0.0000 0.0884 0.0000 ( 15115 PWs)   bands (ev):

    -5.8825  -4.9033  -4.8672  -4.6394  -4.5158  -4.2742  -4.1137  -3.8407
    -3.6323  -3.5143  -3.5035  -3.4418  -3.3571  -3.2071  -3.1274  -3.1263
    -2.9325  -2.9323  -2.8877  -2.7037  -2.5273  -2.5166  -2.5002  -2.4502
    -2.3307  -2.1621  -2.1516  -1.9236  -1.8700  -1.8672  -1.6695  -1.6013
    -1.0452   0.8289   2.6194   2.8950   4.3347   4.7679   5.3806   5.9025

          k = 0.0000 0.1768 0.0000 ( 15114 PWs)   bands (ev):

    -5.4760  -4.8803  -4.7395  -4.6538  -4.5146  -4.3143  -4.1673  -3.7376
    -3.6009  -3.5786  -3.3729  -3.3028  -3.2669  -3.2639  -3.0941  -3.0893
    -3.0178  -2.8276  -2.8012  -2.5989  -2.5159  -2.4495  -2.4367  -2.3535
    -2.2285  -2.2087  -2.1123  -2.0296  -1.8865  -1.7899  -1.7095  -1.6498
    -0.9134   0.8017   1.2369   2.4502   3.1257   4.0520   5.4903   5.7659

          k = 0.0000 0.2652 0.0000 ( 15152 PWs)   bands (ev):

    -4.9835  -4.9108  -4.7760  -4.6082  -4.2957  -4.2224  -4.1260  -3.7940
    -3.5910  -3.5371  -3.3574  -3.3452  -3.3405  -3.2112  -3.0673  -3.0504
    -2.9089  -2.9043  -2.7185  -2.6538  -2.5705  -2.3715  -2.3076  -2.1536
    -2.1070  -2.0096  -1.9971  -1.9287  -1.8291  -1.7980  -1.6990  -1.6812
    -0.6908  -0.4674   0.7943   1.6488   2.4756   3.1486   5.8552   6.1345

          k = 0.0000-0.3536 0.0000 ( 15118 PWs)   bands (ev):

    -4.9230  -4.9197  -4.6004  -4.5989  -4.1563  -4.1512  -3.9838  -3.9761
    -3.5219  -3.5201  -3.3833  -3.3807  -3.3336  -3.3333  -2.9836  -2.9816
    -2.8736  -2.8683  -2.8009  -2.7973  -2.5185  -2.5136  -2.0036  -2.0033
    -1.9903  -1.9869  -1.8670  -1.8653  -1.7984  -1.7983  -1.6976  -1.6961
    -0.8698  -0.8667   0.8383   0.8408   2.5947   2.6018   6.1704   6.1719

          k = 0.1250-0.0000 0.0000 ( 15077 PWs)   bands (ev):

    -5.7225  -4.7728  -4.6792  -4.5503  -4.3323  -4.0612  -3.9724  -3.9647
    -3.8429  -3.5573  -3.5484  -3.5282  -3.4284  -3.3960  -3.2099  -3.1793
    -3.0311  -2.9837  -2.6550  -2.6287  -2.6023  -2.4770  -2.4270  -2.3925
    -2.3445  -2.1985  -2.0606  -1.9749  -1.9526  -1.9459  -1.7080  -1.5679
    -0.9257   1.0167   3.1215   4.3143   4.9765   5.5240   6.0552   6.1901

          k = 0.1250 0.0884 0.0000 ( 15111 PWs)   bands (ev):

    -5.5842  -4.7116  -4.6448  -4.5323  -4.2932  -4.2576  -3.9761  -3.8529
    -3.7530  -3.6240  -3.5640  -3.4152  -3.3563  -3.2417  -3.1970  -3.1608
    -3.1023  -2.9935  -2.7841  -2.6842  -2.6253  -2.5278  -2.4335  -2.3779
    -2.2349  -2.2031  -2.1072  -1.9423  -1.8968  -1.8861  -1.7507  -1.6372
    -0.8425   1.1463   3.2214   3.2374   4.7454   5.0878   5.6638   6.2207

          k = 0.1250 0.1768 0.0000 ( 15135 PWs)   bands (ev):

    -5.2016  -4.6651  -4.5006  -4.4794  -4.4428  -4.1602  -3.9716  -3.7983
    -3.6682  -3.5870  -3.4544  -3.4012  -3.2207  -3.1997  -3.1523  -3.1025
    -3.0389  -3.0282  -2.8131  -2.7285  -2.6669  -2.6306  -2.5945  -2.3048
    -2.2591  -2.1622  -2.0904  -1.8885  -1.8423  -1.8073  -1.7686  -1.7573
    -0.5108   1.3177   1.6864   2.8651   3.5195   4.4460   5.7338   6.0498

          k = 0.1250 0.2652 0.0000 ( 15153 PWs)   bands (ev):

    -4.7427  -4.6980  -4.5665  -4.3465  -4.2129  -4.0600  -3.9578  -3.8061
    -3.5969  -3.5930  -3.4050  -3.3696  -3.2222  -3.1974  -3.1356  -3.0907
    -3.0616  -3.0305  -2.7432  -2.7201  -2.6689  -2.6085  -2.4444  -2.3461
    -2.3194  -2.1386  -2.1359  -1.9675  -1.8519  -1.8181  -1.8127  -1.2589
    -0.1328   0.1211   1.2574   2.2013   2.8178   3.6081   6.0601   6.3969

          k = 0.1250-0.3536 0.0000 ( 15168 PWs)   bands (ev):

    -4.7105  -4.7070  -4.3135  -4.3126  -4.0885  -4.0835  -3.8574  -3.8518
    -3.5802  -3.5771  -3.4198  -3.4182  -3.2778  -3.2760  -3.0971  -3.0960
    -3.0244  -3.0206  -2.7071  -2.7062  -2.6767  -2.6760  -2.2647  -2.2609
    -2.2344  -2.2338  -2.0859  -2.0838  -1.9047  -1.9021  -1.3122  -1.3115
    -0.2937  -0.2922   1.4038   1.4060   3.0277   3.0337   6.3829   6.3844

          k = 0.1250-0.2652 0.0000 ( 15153 PWs)   bands (ev):

    -4.7427  -4.6980  -4.5665  -4.3465  -4.2129  -4.0600  -3.9578  -3.8061
    -3.5969  -3.5930  -3.4050  -3.3696  -3.2222  -3.1974  -3.1356  -3.0907
    -3.0616  -3.0305  -2.7432  -2.7201  -2.6689  -2.6085  -2.4444  -2.3461
    -2.3194  -2.1386  -2.1359  -1.9675  -1.8519  -1.8181  -1.8127  -1.2589
    -0.1328   0.1211   1.2574   2.2013   2.8178   3.6081   6.0601   6.3969

          k = 0.1250-0.1768 0.0000 ( 15135 PWs)   bands (ev):

    -5.2016  -4.6651  -4.5006  -4.4794  -4.4428  -4.1602  -3.9716  -3.7983
    -3.6682  -3.5870  -3.4544  -3.4012  -3.2207  -3.1997  -3.1523  -3.1025
    -3.0389  -3.0282  -2.8131  -2.7285  -2.6669  -2.6306  -2.5945  -2.3048
    -2.2591  -2.1622  -2.0904  -1.8885  -1.8423  -1.8073  -1.7686  -1.7573
    -0.5108   1.3177   1.6864   2.8651   3.5195   4.4460   5.7338   6.0498

          k = 0.1250-0.0884 0.0000 ( 15111 PWs)   bands (ev):

    -5.5842  -4.7116  -4.6448  -4.5323  -4.2932  -4.2576  -3.9761  -3.8529
    -3.7530  -3.6240  -3.5640  -3.4152  -3.3563  -3.2417  -3.1970  -3.1608
    -3.1023  -2.9935  -2.7841  -2.6842  -2.6253  -2.5278  -2.4335  -2.3779
    -2.2349  -2.2031  -2.1072  -1.9423  -1.8968  -1.8861  -1.7507  -1.6372
    -0.8425   1.1463   3.2214   3.2374   4.7454   5.0878   5.6638   6.2206

          k = 0.2500-0.0000 0.0000 ( 15101 PWs)   bands (ev):

    -4.9739  -4.5636  -4.4769  -4.4456  -4.3686  -4.3460  -4.1545  -3.9350
    -3.7664  -3.7373  -3.6541  -3.4708  -3.2896  -3.1544  -3.0798  -2.9791
    -2.6922  -2.6760  -2.6328  -2.5652  -2.5419  -2.3811  -2.3564  -2.3541
    -2.1780  -2.1284  -2.0429  -2.0182  -1.9659  -1.8729  -1.6063  -1.5811
    -0.3927   1.8129   3.9782   5.7778   5.9756   6.3541   6.8613   7.0973

          k = 0.2500 0.0884 0.0000 ( 15103 PWs)   bands (ev):

    -4.8996  -4.5220  -4.4582  -4.4178  -4.2877  -4.2337  -4.1361  -3.9157
    -3.7679  -3.6794  -3.6042  -3.4607  -3.2473  -3.1923  -3.0750  -3.0005
    -2.9069  -2.7296  -2.6265  -2.5999  -2.5607  -2.4680  -2.4236  -2.3521
    -2.2044  -2.1131  -2.0717  -2.0192  -1.7999  -1.7764  -1.6641  -1.6362
    -0.1645   1.9978   4.1212   4.5932   5.8227   5.9316   6.5065   6.9887

          k = 0.2500 0.1768 0.0000 ( 15121 PWs)   bands (ev):

    -4.7219  -4.4329  -4.4149  -4.2895  -4.0675  -4.0378  -4.0099  -3.8258
    -3.7491  -3.5910  -3.5610  -3.4533  -3.3420  -3.1665  -3.0729  -3.0507
    -2.9223  -2.9139  -2.7252  -2.6721  -2.6249  -2.5730  -2.5208  -2.4330
    -2.2721  -2.2321  -2.1272  -1.9421  -1.7982  -1.7874  -1.7556  -1.1871
     0.4311   2.3873   2.7929   3.8285   4.6123   5.4974   6.4753   6.8944

          k = 0.2500 0.2652 0.0000 ( 15099 PWs)   bands (ev):

    -4.5319  -4.3213  -4.3147  -4.2698  -3.8678  -3.8485  -3.7331  -3.7216
    -3.6976  -3.6533  -3.5450  -3.4370  -3.3470  -3.1757  -3.0865  -3.0686
    -3.0044  -2.9090  -2.7924  -2.7600  -2.6947  -2.6643  -2.6577  -2.4924
    -2.3533  -2.2924  -2.2409  -1.9214  -1.8902  -1.8821  -1.4725  -0.3745
     0.9250   1.2020   2.2901   3.2322   3.9719   4.8356   6.7017   7.1870

          k = 0.2500-0.3536 0.0000 ( 15096 PWs)   bands (ev):

    -4.3823  -4.3779  -4.2347  -4.2306  -3.8776  -3.8743  -3.6814  -3.6799
    -3.5659  -3.5650  -3.4389  -3.4345  -3.2583  -3.2581  -3.1262  -3.1262
    -2.9727  -2.9723  -2.7766  -2.7745  -2.7143  -2.7116  -2.6835  -2.6803
    -2.3494  -2.3487  -2.1153  -2.1126  -1.9362  -1.9338  -0.4995  -0.4986
     0.7034   0.7039   2.5090   2.5126   4.2516   4.2548   7.0563   7.0578

          k = 0.2500-0.2652 0.0000 ( 15099 PWs)   bands (ev):

    -4.5319  -4.3213  -4.3147  -4.2698  -3.8678  -3.8485  -3.7331  -3.7216
    -3.6976  -3.6533  -3.5450  -3.4370  -3.3470  -3.1757  -3.0865  -3.0686
    -3.0044  -2.9090  -2.7924  -2.7600  -2.6947  -2.6643  -2.6577  -2.4924
    -2.3533  -2.2924  -2.2409  -1.9214  -1.8902  -1.8821  -1.4725  -0.3745
     0.9250   1.2020   2.2901   3.2322   3.9719   4.8356   6.7017   7.1870

          k = 0.2500-0.1768 0.0000 ( 15121 PWs)   bands (ev):

    -4.7219  -4.4329  -4.4149  -4.2895  -4.0675  -4.0378  -4.0099  -3.8258
    -3.7491  -3.5910  -3.5610  -3.4533  -3.3420  -3.1665  -3.0729  -3.0507
    -2.9223  -2.9139  -2.7252  -2.6721  -2.6249  -2.5730  -2.5208  -2.4330
    -2.2721  -2.2321  -2.1272  -1.9421  -1.7982  -1.7874  -1.7556  -1.1871
     0.4311   2.3873   2.7929   3.8285   4.6123   5.4974   6.4753   6.8943

          k = 0.2500-0.0884 0.0000 ( 15103 PWs)   bands (ev):

    -4.8996  -4.5220  -4.4582  -4.4178  -4.2877  -4.2337  -4.1361  -3.9157
    -3.7679  -3.6794  -3.6042  -3.4607  -3.2473  -3.1923  -3.0750  -3.0005
    -2.9069  -2.7296  -2.6265  -2.5999  -2.5607  -2.4680  -2.4236  -2.3521
    -2.2044  -2.1131  -2.0717  -2.0192  -1.7999  -1.7764  -1.6641  -1.6362
    -0.1645   1.9978   4.1212   4.5932   5.8227   5.9316   6.5064   6.9887

          k = 0.3750-0.0000 0.0000 ( 15069 PWs)   bands (ev):

    -4.7939  -4.7751  -4.6816  -4.6654  -4.3689  -4.2711  -4.2126  -4.1047
    -3.8515  -3.6172  -3.5245  -3.4820  -3.4440  -3.2422  -2.9272  -2.7344
    -2.5493  -2.5278  -2.4567  -2.2912  -2.2571  -2.1195  -1.9908  -1.9556
    -1.9338  -1.8549  -1.8399  -1.8207  -1.6338  -1.5676  -1.1743  -0.7253
     0.8542   2.9603   3.6956   4.3492   5.6378   6.1416   7.6752   8.1679

          k = 0.3750 0.0884 0.0000 ( 15052 PWs)   bands (ev):

    -4.7257  -4.7215  -4.6291  -4.6256  -4.4247  -4.1995  -4.1828  -4.1200
    -3.8567  -3.6820  -3.4626  -3.3389  -3.3219  -3.2335  -2.9317  -2.8397
    -2.6285  -2.5597  -2.4537  -2.4407  -2.2232  -2.1739  -2.1328  -1.9767
    -1.9663  -1.8696  -1.8127  -1.7979  -1.7002  -1.6457  -1.1706  -0.4890
     1.1519   3.2056   3.7813   4.5436   5.7780   6.3202   6.4560   7.3636

          k = 0.3750 0.1768 0.0000 ( 15049 PWs)   bands (ev):

    -4.6622  -4.5791  -4.5584  -4.4512  -4.3524  -4.3078  -4.0032  -3.9373
    -3.8043  -3.6749  -3.4094  -3.2445  -3.1933  -3.1272  -3.0846  -3.0322
    -2.7968  -2.7155  -2.5909  -2.4860  -2.3668  -2.2456  -2.2039  -2.0340
    -2.0232  -1.9243  -1.8213  -1.8046  -1.7565  -1.7540  -1.0566   0.1252
     1.8557   3.4489   3.8768   4.7263   5.2155   5.9171   6.1871   6.8317

          k = 0.3750 0.2652 0.0000 ( 15057 PWs)   bands (ev):

    -4.7118  -4.5744  -4.3581  -4.2718  -4.1834  -4.0599  -3.7936  -3.7656
    -3.7177  -3.6190  -3.5284  -3.3385  -3.2596  -3.2195  -3.1963  -3.1122
    -2.9743  -2.8906  -2.6627  -2.5815  -2.3744  -2.2468  -2.2330  -2.1582
    -2.0884  -1.9308  -1.8984  -1.8274  -1.8058  -1.8001  -0.4688   0.9826
     2.0839   2.6776   3.6209   4.4999   5.4851   5.9316   6.2782   6.7135

          k = 0.3750-0.3536 0.0000 ( 15056 PWs)   bands (ev):

    -4.6839  -4.6809  -4.1263  -4.1226  -3.9897  -3.9880  -3.8445  -3.8417
    -3.5441  -3.5438  -3.4781  -3.4776  -3.3876  -3.3834  -3.2603  -3.2562
    -2.8758  -2.8756  -2.6666  -2.6650  -2.4161  -2.4129  -2.1046  -2.1034
    -2.0345  -2.0338  -1.9396  -1.9386  -1.8136  -1.8116   0.6329   0.6345
     2.0809   2.0809   3.9291   3.9337   5.9837   5.9854   6.6486   6.6505

          k = 0.3750-0.2652 0.0000 ( 15057 PWs)   bands (ev):

    -4.7118  -4.5744  -4.3581  -4.2718  -4.1834  -4.0599  -3.7936  -3.7656
    -3.7177  -3.6190  -3.5284  -3.3385  -3.2596  -3.2195  -3.1963  -3.1122
    -2.9743  -2.8906  -2.6627  -2.5815  -2.3744  -2.2468  -2.2330  -2.1582
    -2.0884  -1.9308  -1.8984  -1.8274  -1.8058  -1.8001  -0.4688   0.9826
     2.0839   2.6776   3.6209   4.4999   5.4851   5.9316   6.2782   6.7135

          k = 0.3750-0.1768 0.0000 ( 15049 PWs)   bands (ev):

    -4.6622  -4.5791  -4.5584  -4.4512  -4.3524  -4.3078  -4.0032  -3.9373
    -3.8043  -3.6749  -3.4094  -3.2445  -3.1933  -3.1272  -3.0846  -3.0322
    -2.7968  -2.7155  -2.5909  -2.4860  -2.3668  -2.2456  -2.2039  -2.0340
    -2.0232  -1.9243  -1.8213  -1.8046  -1.7565  -1.7540  -1.0566   0.1252
     1.8557   3.4489   3.8768   4.7263   5.2155   5.9171   6.1871   6.8317

          k = 0.3750-0.0884 0.0000 ( 15052 PWs)   bands (ev):

    -4.7257  -4.7215  -4.6291  -4.6256  -4.4247  -4.1995  -4.1828  -4.1200
    -3.8567  -3.6820  -3.4626  -3.3389  -3.3219  -3.2335  -2.9317  -2.8397
    -2.6285  -2.5597  -2.4537  -2.4407  -2.2232  -2.1739  -2.1328  -1.9767
    -1.9663  -1.8696  -1.8127  -1.7979  -1.7002  -1.6457  -1.1706  -0.4890
     1.1519   3.2056   3.7813   4.5436   5.7780   6.3203   6.4560   7.3636

          k =-0.5000 0.0000 0.0000 ( 14992 PWs)   bands (ev):

    -4.8992  -4.8949  -4.7939  -4.7908  -4.2808  -4.2777  -4.2620  -4.2587
    -3.6367  -3.6291  -3.6102  -3.6024  -3.3800  -3.3748  -2.6507  -2.6497
    -2.5850  -2.5790  -2.3034  -2.3032  -2.0170  -2.0170  -1.8788  -1.8788
    -1.8561  -1.8528  -1.6540  -1.6532  -1.5977  -1.5950   0.9155   0.9161
     1.6710   1.6725   2.8048   2.8067   5.4452   5.4515   8.4967   8.5013

          k =-0.5000 0.0884 0.0000 ( 14998 PWs)   bands (ev):

    -4.8271  -4.8228  -4.7440  -4.7407  -4.3874  -4.3842  -4.1579  -4.1550
    -3.8015  -3.7976  -3.4333  -3.4282  -3.2933  -3.2902  -2.6713  -2.6662
    -2.6048  -2.6041  -2.3934  -2.3915  -2.0675  -2.0658  -1.9270  -1.9257
    -1.8678  -1.8659  -1.7238  -1.7236  -1.5905  -1.5905   0.9863   0.9870
     1.8708   1.8721   3.1011   3.1036   5.5874   5.5935   8.5069   8.5106

          k =-0.5000 0.1768 0.0000 ( 15026 PWs)   bands (ev):

    -4.6677  -4.6673  -4.6258  -4.6240  -4.4784  -4.4769  -3.9774  -3.9729
    -3.8348  -3.8309  -3.3888  -3.3846  -3.1677  -3.1640  -2.8639  -2.8610
    -2.6174  -2.6144  -2.5624  -2.5592  -2.1716  -2.1698  -2.1008  -2.0992
    -1.8993  -1.8988  -1.6603  -1.6600  -1.6041  -1.6033   1.1863   1.1873
     2.3831   2.3842   3.8520   3.8550   5.9869   5.9923   6.8128   6.8146

          k =-0.5000 0.2652 0.0000 ( 15032 PWs)   bands (ev):

    -4.7551  -4.7522  -4.3904  -4.3899  -4.2756  -4.2751  -3.8095  -3.8050
    -3.7516  -3.7500  -3.4534  -3.4531  -3.2368  -3.2324  -3.1216  -3.1193
    -2.7934  -2.7908  -2.6538  -2.6521  -2.2638  -2.2630  -2.0862  -2.0859
    -1.7920  -1.7917  -1.6642  -1.6640  -1.6140  -1.6128   1.4693   1.4706
     3.0515   3.0522   4.7828   4.7854   5.4516   5.4524   6.1818   6.1837

          k =-0.5000-0.3536 0.0000 ( 15032 PWs)   bands (ev):

    -4.8045  -4.8018  -4.1871  -4.1848  -4.1842  -4.1795  -3.8066  -3.8049
    -3.5564  -3.5551  -3.5538  -3.5504  -3.4019  -3.4014  -3.3038  -3.3000
    -2.7313  -2.7298  -2.7141  -2.7120  -2.3727  -2.3696  -2.0173  -2.0172
    -1.7369  -1.7362  -1.6892  -1.6887  -1.6039  -1.6032   1.6366   1.6381
     3.4831   3.4834   4.8746   4.8762   5.3428   5.3442   5.6734   5.6800

     the Fermi energy is     1.1827 ev

!    total energy              =    -505.67910227 Ry
     estimated scf accuracy    <       0.00000067 Ry
     smearing contrib. (-TS)   =      -0.00194511 Ry
     internal energy E=F+TS    =    -505.67715716 Ry

     The total energy is F=E-TS. E is the sum of the following terms:
     one-electron contribution =   -5175.57374061 Ry
     hartree contribution      =    2633.60393841 Ry
     xc contribution           =    -133.89499054 Ry
     ewald contribution        =    2170.33980824 Ry
     DFT-D3 Dispersion         =      -0.15217266 Ry

     convergence has been achieved in   4 iterations

     negative rho (up, down):  1.768E-05 0.000E+00

     Forces acting on atoms (cartesian axes, Ry/au):

     atom    1 type  1   force =    -0.00000112    0.00000042    0.00689321
     atom    2 type  1   force =     0.00000086   -0.00000024   -0.00725516
     atom    3 type  1   force =     0.00000037    0.00000051    0.00327519
     atom    4 type  1   force =    -0.00000056   -0.00000167   -0.00288828
     atom    5 type  1   force =    -0.00000003    0.00000037    0.00778968
     atom    6 type  1   force =     0.00000048    0.00000060   -0.00781464
     The non-local contrib.  to forces
     atom    1 type  1   force =    -0.00000056    0.00000049    0.00611020
     atom    2 type  1   force =     0.00000074   -0.00000123    0.13516288
     atom    3 type  1   force =     0.00000038    0.00000029   -0.02181121
     atom    4 type  1   force =    -0.00000091   -0.00000254    0.02254385
     atom    5 type  1   force =    -0.00000006   -0.00000005   -0.13487972
     atom    6 type  1   force =     0.00000057    0.00000023   -0.00692949
     The ionic contribution  to forces
     atom    1 type  1   force =     0.00000086   -0.00000460   74.00177480
     atom    2 type  1   force =     0.00000033    0.00000145  115.01427455
     atom    3 type  1   force =     0.00000047   -0.00000067  -24.22174096
     atom    4 type  1   force =    -0.00000166    0.00000377   24.18146560
     atom    5 type  1   force =     0.00000000   -0.00000001 -115.02846522
     atom    6 type  1   force =    -0.00000001    0.00000007  -73.94730878
     The local contribution  to forces
     atom    1 type  1   force =    -0.00000144    0.00000383  -73.99080732
     atom    2 type  1   force =    -0.00000067    0.00000058 -115.14484506
     atom    3 type  1   force =    -0.00000051    0.00000039   24.24242170
     atom    4 type  1   force =     0.00000204   -0.00000240  -24.20439986
     atom    5 type  1   force =     0.00000015    0.00000007  115.15863842
     atom    6 type  1   force =    -0.00000028   -0.00000005   73.93579936
     The core correction contribution to forces
     atom    1 type  1   force =    -0.00000004   -0.00000001   -0.00257631
     atom    2 type  1   force =    -0.00000002    0.00000005   -0.00614083
     atom    3 type  1   force =     0.00000001   -0.00000001    0.00000094
     atom    4 type  1   force =     0.00000005    0.00000002   -0.00004653
     atom    5 type  1   force =     0.00000000   -0.00000001    0.00602769
     atom    6 type  1   force =    -0.00000003   -0.00000003    0.00269550
     The Hubbard contrib.    to forces
     atom    1 type  1   force =     0.00000000    0.00000000    0.00000000
     atom    2 type  1   force =     0.00000000    0.00000000    0.00000000
     atom    3 type  1   force =     0.00000000    0.00000000    0.00000000
     atom    4 type  1   force =     0.00000000    0.00000000    0.00000000
     atom    5 type  1   force =     0.00000000    0.00000000    0.00000000
     atom    6 type  1   force =     0.00000000    0.00000000    0.00000000
     The SCF correction term to forces
     atom    1 type  1   force =     0.00000005    0.00000067   -0.00228246
     atom    2 type  1   force =     0.00000048   -0.00000112   -0.00143680
     atom    3 type  1   force =     0.00000000    0.00000000    0.00000000
     atom    4 type  1   force =    -0.00000000   -0.00000000    0.00000000
     atom    5 type  1   force =    -0.00000000    0.00000000    0.00000000
     atom    6 type  1   force =     0.00000000    0.00000000    0.00000000

     DFT-D3 dispersion contribution to forces:
     atom    1 type  1   force =    -0.00000000    0.00000000   -0.00516072
     atom    2 type  1   force =    -0.00000000   -0.00000000   -0.00410490
     atom    3 type  1   force =    -0.00000000   -0.00000000    0.00251938
     atom    4 type  1   force =     0.00000001   -0.00000000   -0.00252864
     atom    5 type  1   force =    -0.00000000    0.00000000    0.00405954
     atom    6 type  1   force =    -0.00000000    0.00000000    0.00521534

     Total force =     0.010008     Total SCF correction =     0.002697
     SCF correction compared to forces is large: reduce conv_thr to get better values


     Computing stress (Cartesian axis) and pressure


     negative rho (up, down):  1.768E-05 0.000E+00
          total   stress  (Ry/bohr**3)                   (kbar)     P=      -14.60
  -0.00010964  -0.00000000  -0.00000000          -16.13       -0.00       -0.00
  -0.00000000  -0.00012214   0.00000000           -0.00      -17.97        0.00
  -0.00000000   0.00000000  -0.00006603           -0.00        0.00       -9.71

     Energy error            =      1.2E-04 Ry
     Gradient error          =      7.3E-03 Ry/Bohr

     number of scf cycles    =   2
     number of bfgs steps    =   1

     energy             old  =    -505.6789853627 Ry
     energy             new  =    -505.6791022687 Ry

     CASE: energy            _new < energy            _old


     WARNING: bfgs curvature condition failed, Theta= 0.882
     new trust radius        =       0.0090441440 bohr
     new conv_thr            =       0.0000000117 Ry


ATOMIC_POSITIONS (angstrom)
Ag            2.1766615401        3.0782681668       15.8135224802
Ag            0.7255527854        1.0260895096       17.2468929138
Ag            2.1766636603        3.0782672692       12.9022182138    0   0   0
Ag            0.7255545534        1.0260890897       14.3533273207    0   0   0
Ag            2.1766636603        3.0782672692       10.0000000000    0   0   0
Ag            0.7255545534        1.0260890897       11.4511091069    0   0   0



     Writing config-only to output data dir ./Ag_110/Ag_110.save/
     NEW-OLD atomic charge density approx. for the potential

     negative rho (up, down):  1.811E-05 0.000E+00

     total cpu time spent up to now is       31.4 secs

     per-process dynamical memory:   185.6 Mb

     Self-consistent Calculation

     iteration #  1     ecut=    55.00 Ry     beta= 0.30
     Davidson diagonalization with overlap
     ethr =  1.00E-06,  avg # of iterations =  3.0

     negative rho (up, down):  1.801E-05 0.000E+00

     total cpu time spent up to now is       32.2 secs

     total energy              =    -505.67919033 Ry
     estimated scf accuracy    <       0.00006894 Ry

     iteration #  2     ecut=    55.00 Ry     beta= 0.30
     Davidson diagonalization with overlap
     ethr =  1.04E-07,  avg # of iterations =  2.1

     negative rho (up, down):  1.797E-05 0.000E+00

     total cpu time spent up to now is       32.7 secs

     total energy              =    -505.67916772 Ry
     estimated scf accuracy    <       0.00091281 Ry

     iteration #  3     ecut=    55.00 Ry     beta= 0.30
     Davidson diagonalization with overlap
     ethr =  1.04E-07,  avg # of iterations =  2.0

     negative rho (up, down):  1.796E-05 0.000E+00

     total cpu time spent up to now is       33.1 secs

     total energy              =    -505.67921861 Ry
     estimated scf accuracy    <       0.00009819 Ry

     iteration #  4     ecut=    55.00 Ry     beta= 0.30
     Davidson diagonalization with overlap
     ethr =  1.04E-07,  avg # of iterations =  1.0

     negative rho (up, down):  1.793E-05 0.000E+00

     total cpu time spent up to now is       33.6 secs

     total energy              =    -505.67922397 Ry
     estimated scf accuracy    <       0.00000082 Ry

     iteration #  5     ecut=    55.00 Ry     beta= 0.30
     Davidson diagonalization with overlap
     ethr =  1.24E-09,  avg # of iterations =  4.2

     negative rho (up, down):  1.787E-05 0.000E+00

     total cpu time spent up to now is       34.3 secs

     total energy              =    -505.67922413 Ry
     estimated scf accuracy    <       0.00000029 Ry

     iteration #  6     ecut=    55.00 Ry     beta= 0.30
     Davidson diagonalization with overlap
     ethr =  4.34E-10,  avg # of iterations =  2.0

     negative rho (up, down):  1.784E-05 0.000E+00

     total cpu time spent up to now is       34.9 secs

     total energy              =    -505.67922417 Ry
     estimated scf accuracy    <       0.00000008 Ry

     iteration #  7     ecut=    55.00 Ry     beta= 0.30
     Davidson diagonalization with overlap
     ethr =  1.15E-10,  avg # of iterations =  2.6

     negative rho (up, down):  1.781E-05 0.000E+00

     total cpu time spent up to now is       35.3 secs

     End of self-consistent calculation

          k = 0.0000 0.0000 0.0000 ( 15163 PWs)   bands (ev):

    -6.0297  -4.9509  -4.9029  -4.6754  -4.5173  -4.1166  -4.0556  -3.7887
    -3.7586  -3.7515  -3.4830  -3.3864  -3.3705  -3.3355  -3.1659  -3.0608
    -3.0198  -3.0129  -2.7741  -2.7662  -2.5535  -2.5257  -2.4902  -2.4555
    -2.3923  -2.1345  -2.0784  -2.0631  -1.8269  -1.7950  -1.7077  -1.5490
    -1.0698   0.7300   2.8005   3.6335   4.6823   5.2440   5.5728   5.8948

          k = 0.0000 0.0884 0.0000 ( 15115 PWs)   bands (ev):

    -5.8833  -4.9069  -4.8686  -4.6396  -4.5191  -4.2777  -4.1173  -3.8436
    -3.6348  -3.5175  -3.5036  -3.4438  -3.3574  -3.2071  -3.1298  -3.1291
    -2.9354  -2.9329  -2.8896  -2.7070  -2.5294  -2.5199  -2.5014  -2.4531
    -2.3346  -2.1643  -2.1535  -1.9241  -1.8721  -1.8685  -1.6691  -1.6021
    -1.0440   0.8291   2.6180   2.8988   4.3306   4.7716   5.3814   5.9045

          k = 0.0000 0.1768 0.0000 ( 15114 PWs)   bands (ev):

    -5.4767  -4.8830  -4.7404  -4.6559  -4.5152  -4.3187  -4.1714  -3.7407
    -3.6035  -3.5818  -3.3743  -3.3025  -3.2682  -3.2658  -3.0981  -3.0909
    -3.0186  -2.8296  -2.8054  -2.6005  -2.5197  -2.4513  -2.4383  -2.3562
    -2.2302  -2.2109  -2.1141  -2.0309  -1.8882  -1.7888  -1.7112  -1.6500
    -0.9128   0.8017   1.2364   2.4461   3.1295   4.0526   5.4922   5.7670

          k = 0.0000 0.2652 0.0000 ( 15152 PWs)   bands (ev):

    -4.9835  -4.9125  -4.7789  -4.6094  -4.2971  -4.2262  -4.1304  -3.7959
    -3.5936  -3.5396  -3.3588  -3.3476  -3.3408  -3.2137  -3.0700  -3.0520
    -2.9131  -2.9072  -2.7188  -2.6575  -2.5753  -2.3749  -2.3066  -2.1539
    -2.1089  -2.0102  -2.0006  -1.9290  -1.8294  -1.7995  -1.6999  -1.6815
    -0.6917  -0.4679   0.7898   1.6484   2.4770   3.1526   5.8571   6.1366

          k = 0.0000-0.3536 0.0000 ( 15118 PWs)   bands (ev):

    -4.9257  -4.9188  -4.6039  -4.6002  -4.1625  -4.1508  -3.9908  -3.9742
    -3.5247  -3.5207  -3.3856  -3.3801  -3.3367  -3.3364  -2.9880  -2.9834
    -2.8774  -2.8661  -2.8063  -2.7987  -2.5263  -2.5149  -2.0048  -2.0039
    -1.9914  -1.9842  -1.8688  -1.8653  -1.8000  -1.7990  -1.6987  -1.6965
    -0.8746  -0.8682   0.8342   0.8398   2.5949   2.6092   6.1710   6.1741

          k = 0.1250-0.0000 0.0000 ( 15077 PWs)   bands (ev):

    -5.7233  -4.7754  -4.6813  -4.5508  -4.3361  -4.0645  -3.9747  -3.9638
    -3.8476  -3.5605  -3.5513  -3.5306  -3.4309  -3.3981  -3.2100  -3.1820
    -3.0320  -2.9890  -2.6572  -2.6305  -2.6045  -2.4781  -2.4307  -2.3938
    -2.3462  -2.2016  -2.0613  -1.9769  -1.9539  -1.9439  -1.7104  -1.5681
    -0.9245   1.0172   3.1251   4.3131   4.9799   5.5248   6.0510   6.1926

          k = 0.1250 0.0884 0.0000 ( 15111 PWs)   bands (ev):

    -5.5850  -4.7148  -4.6462  -4.5325  -4.2965  -4.2597  -3.9786  -3.8554
    -3.7567  -3.6281  -3.5668  -3.4163  -3.3599  -3.2425  -3.1971  -3.1628
    -3.1063  -2.9949  -2.7863  -2.6879  -2.6277  -2.5298  -2.4361  -2.3801
    -2.2376  -2.2032  -2.1082  -1.9437  -1.8956  -1.8880  -1.7529  -1.6377
    -0.8416   1.1472   3.2200   3.2410   4.7419   5.0911   5.6646   6.2226

          k = 0.1250 0.1768 0.0000 ( 15135 PWs)   bands (ev):

    -5.2024  -4.6677  -4.5014  -4.4810  -4.4431  -4.1638  -3.9757  -3.8008
    -3.6719  -3.5904  -3.4579  -3.4029  -3.2236  -3.2020  -3.1527  -3.1029
    -3.0405  -3.0298  -2.8162  -2.7307  -2.6700  -2.6337  -2.5979  -2.3066
    -2.2614  -2.1622  -2.0906  -1.8899  -1.8423  -1.8082  -1.7703  -1.7587
    -0.5108   1.3183   1.6860   2.8617   3.5229   4.4462   5.7358   6.0508

          k = 0.1250 0.2652 0.0000 ( 15153 PWs)   bands (ev):

    -4.7427  -4.6995  -4.5693  -4.3476  -4.2137  -4.0625  -3.9628  -3.8087
    -3.6006  -3.5937  -3.4080  -3.3717  -3.2242  -3.1997  -3.1374  -3.0946
    -3.0633  -3.0321  -2.7444  -2.7241  -2.6723  -2.6120  -2.4467  -2.3464
    -2.3208  -2.1387  -2.1367  -1.9692  -1.8522  -1.8187  -1.8129  -1.2617
    -0.1340   0.1207   1.2537   2.2026   2.8179   3.6117   6.0620   6.3990

          k = 0.1250-0.3536 0.0000 ( 15168 PWs)   bands (ev):

    -4.7132  -4.7060  -4.3171  -4.3147  -4.0919  -4.0815  -3.8653  -3.8520
    -3.5827  -3.5764  -3.4226  -3.4191  -3.2820  -3.2781  -3.1013  -3.0984
    -3.0292  -3.0215  -2.7109  -2.7088  -2.6788  -2.6774  -2.2680  -2.2601
    -2.2353  -2.2341  -2.0881  -2.0837  -1.9069  -1.9013  -1.3137  -1.3120
    -0.2972  -0.2942   1.4009   1.4057   3.0281   3.0402   6.3837   6.3868

          k = 0.1250-0.2652 0.0000 ( 15153 PWs)   bands (ev):

    -4.7427  -4.6995  -4.5693  -4.3476  -4.2137  -4.0625  -3.9628  -3.8087
    -3.6006  -3.5937  -3.4080  -3.3717  -3.2242  -3.1997  -3.1374  -3.0946
    -3.0633  -3.0321  -2.7444  -2.7241  -2.6723  -2.6120  -2.4467  -2.3464
    -2.3208  -2.1387  -2.1367  -1.9692  -1.8522  -1.8187  -1.8129  -1.2617
    -0.1340   0.1207   1.2537   2.2026   2.8179   3.6117   6.0620   6.3990

          k = 0.1250-0.1768 0.0000 ( 15135 PWs)   bands (ev):

    -5.2024  -4.6677  -4.5014  -4.4810  -4.4431  -4.1638  -3.9757  -3.8008
    -3.6719  -3.5904  -3.4579  -3.4029  -3.2236  -3.2020  -3.1527  -3.1029
    -3.0405  -3.0298  -2.8162  -2.7307  -2.6700  -2.6337  -2.5979  -2.3066
    -2.2614  -2.1622  -2.0906  -1.8899  -1.8423  -1.8082  -1.7703  -1.7587
    -0.5108   1.3183   1.6860   2.8617   3.5229   4.4462   5.7358   6.0508

          k = 0.1250-0.0884 0.0000 ( 15111 PWs)   bands (ev):

    -5.5850  -4.7148  -4.6462  -4.5325  -4.2965  -4.2597  -3.9786  -3.8554
    -3.7567  -3.6281  -3.5668  -3.4163  -3.3599  -3.2425  -3.1971  -3.1628
    -3.1063  -2.9949  -2.7863  -2.6879  -2.6277  -2.5298  -2.4361  -2.3801
    -2.2376  -2.2032  -2.1082  -1.9437  -1.8956  -1.8880  -1.7529  -1.6377
    -0.8416   1.1472   3.2200   3.2410   4.7419   5.0911   5.6646   6.2226

          k = 0.2500-0.0000 0.0000 ( 15101 PWs)   bands (ev):

    -4.9746  -4.5666  -4.4770  -4.4474  -4.3698  -4.3463  -4.1553  -3.9381
    -3.7711  -3.7429  -3.6595  -3.4741  -3.2949  -3.1584  -3.0821  -2.9822
    -2.6947  -2.6767  -2.6346  -2.5659  -2.5428  -2.3806  -2.3587  -2.3572
    -2.1783  -2.1293  -2.0416  -2.0192  -1.9665  -1.8755  -1.6073  -1.5819
    -0.3922   1.8146   3.9813   5.7807   5.9744   6.3550   6.8612   7.0977

          k = 0.2500 0.0884 0.0000 ( 15103 PWs)   bands (ev):

    -4.9004  -4.5242  -4.4590  -4.4188  -4.2886  -4.2353  -4.1371  -3.9190
    -3.7724  -3.6844  -3.6091  -3.4637  -3.2528  -3.1961  -3.0767  -3.0037
    -2.9101  -2.7308  -2.6279  -2.6014  -2.5623  -2.4698  -2.4257  -2.3514
    -2.2044  -2.1123  -2.0738  -2.0200  -1.8019  -1.7768  -1.6654  -1.6375
    -0.1643   1.9999   4.1242   4.5919   5.8204   5.9344   6.5072   6.9888

          k = 0.2500 0.1768 0.0000 ( 15121 PWs)   bands (ev):

    -4.7228  -4.4349  -4.4147  -4.2908  -4.0682  -4.0403  -4.0121  -3.8290
    -3.7526  -3.5955  -3.5643  -3.4555  -3.3449  -3.1718  -3.0776  -3.0509
    -2.9267  -2.9161  -2.7281  -2.6730  -2.6258  -2.5750  -2.5229  -2.4343
    -2.2720  -2.2326  -2.1277  -1.9421  -1.7989  -1.7884  -1.7568  -1.1902
     0.4310   2.3895   2.7919   3.8266   4.6143   5.4969   6.4775   6.8954

          k = 0.2500 0.2652 0.0000 ( 15099 PWs)   bands (ev):

    -4.5329  -4.3237  -4.3141  -4.2709  -3.8686  -3.8510  -3.7363  -3.7237
    -3.7005  -3.6560  -3.5482  -3.4400  -3.3498  -3.1787  -3.0897  -3.0730
    -3.0065  -2.9115  -2.7957  -2.7611  -2.6959  -2.6668  -2.6590  -2.4939
    -2.3553  -2.2934  -2.2410  -1.9236  -1.8918  -1.8814  -1.4734  -0.3773
     0.9239   1.2021   2.2871   3.2353   3.9707   4.8381   6.7037   7.1892

          k = 0.2500-0.3536 0.0000 ( 15096 PWs)   bands (ev):

    -4.3858  -4.3765  -4.2379  -4.2291  -3.8809  -3.8738  -3.6852  -3.6820
    -3.5693  -3.5666  -3.4451  -3.4352  -3.2605  -3.2604  -3.1305  -3.1303
    -2.9743  -2.9739  -2.7774  -2.7737  -2.7185  -2.7115  -2.6897  -2.6824
    -2.3501  -2.3492  -2.1189  -2.1132  -1.9381  -1.9331  -0.5014  -0.4992
     0.7009   0.7020   2.5065   2.5140   4.2523   4.2587   7.0573   7.0605

          k = 0.2500-0.2652 0.0000 ( 15099 PWs)   bands (ev):

    -4.5329  -4.3237  -4.3141  -4.2709  -3.8686  -3.8510  -3.7363  -3.7237
    -3.7005  -3.6560  -3.5482  -3.4400  -3.3498  -3.1787  -3.0897  -3.0730
    -3.0065  -2.9115  -2.7957  -2.7611  -2.6959  -2.6668  -2.6590  -2.4939
    -2.3553  -2.2934  -2.2410  -1.9236  -1.8918  -1.8814  -1.4734  -0.3773
     0.9239   1.2021   2.2871   3.2353   3.9707   4.8381   6.7037   7.1892

          k = 0.2500-0.1768 0.0000 ( 15121 PWs)   bands (ev):

    -4.7228  -4.4349  -4.4147  -4.2908  -4.0682  -4.0403  -4.0121  -3.8290
    -3.7526  -3.5955  -3.5643  -3.4555  -3.3449  -3.1718  -3.0776  -3.0509
    -2.9267  -2.9161  -2.7281  -2.6730  -2.6258  -2.5750  -2.5229  -2.4343
    -2.2720  -2.2326  -2.1277  -1.9421  -1.7989  -1.7884  -1.7568  -1.1902
     0.4310   2.3895   2.7919   3.8266   4.6143   5.4969   6.4775   6.8953

          k = 0.2500-0.0884 0.0000 ( 15103 PWs)   bands (ev):

    -4.9004  -4.5242  -4.4590  -4.4188  -4.2886  -4.2353  -4.1371  -3.9190
    -3.7724  -3.6844  -3.6091  -3.4637  -3.2528  -3.1961  -3.0767  -3.0037
    -2.9101  -2.7308  -2.6279  -2.6014  -2.5623  -2.4698  -2.4257  -2.3514
    -2.2044  -2.1123  -2.0738  -2.0200  -1.8019  -1.7768  -1.6654  -1.6375
    -0.1643   1.9999   4.1242   4.5919   5.8204   5.9344   6.5072   6.9888

          k = 0.3750-0.0000 0.0000 ( 15069 PWs)   bands (ev):

    -4.7960  -4.7746  -4.6828  -4.6658  -4.3730  -4.2729  -4.2157  -4.1090
    -3.8539  -3.6195  -3.5312  -3.4865  -3.4485  -3.2474  -2.9297  -2.7349
    -2.5504  -2.5272  -2.4580  -2.2933  -2.2564  -2.1218  -1.9920  -1.9572
    -1.9339  -1.8553  -1.8407  -1.8206  -1.6364  -1.5676  -1.1755  -0.7280
     0.8533   2.9625   3.6944   4.3479   5.6393   6.1427   7.6765   8.1666

          k = 0.3750 0.0884 0.0000 ( 15052 PWs)   bands (ev):

    -4.7288  -4.7202  -4.6312  -4.6243  -4.4286  -4.2021  -4.1851  -4.1241
    -3.8606  -3.6860  -3.4688  -3.3421  -3.3251  -3.2385  -2.9335  -2.8410
    -2.6303  -2.5595  -2.4552  -2.4411  -2.2241  -2.1753  -2.1344  -1.9781
    -1.9672  -1.8701  -1.8134  -1.7982  -1.7017  -1.6462  -1.1717  -0.4921
     1.1511   3.2081   3.7802   4.5422   5.7796   6.3211   6.4546   7.3620

          k = 0.3750 0.1768 0.0000 ( 15049 PWs)   bands (ev):

    -4.6625  -4.5804  -4.5585  -4.4530  -4.3543  -4.3106  -4.0054  -3.9422
    -3.8083  -3.6779  -3.4144  -3.2492  -3.1960  -3.1303  -3.0874  -3.0324
    -2.7979  -2.7151  -2.5935  -2.4868  -2.3691  -2.2479  -2.2066  -2.0330
    -2.0246  -1.9259  -1.8218  -1.8054  -1.7583  -1.7547  -1.0576   0.1218
     1.8553   3.4486   3.8788   4.7238   5.2138   5.9159   6.1885   6.8324

          k = 0.3750 0.2652 0.0000 ( 15057 PWs)   bands (ev):

    -4.7126  -4.5751  -4.3594  -4.2736  -4.1854  -4.0617  -3.7959  -3.7701
    -3.7205  -3.6215  -3.5308  -3.3419  -3.2629  -3.2184  -3.2007  -3.1136
    -2.9782  -2.8928  -2.6648  -2.5835  -2.3765  -2.2477  -2.2358  -2.1600
    -2.0897  -1.9319  -1.8993  -1.8294  -1.8068  -1.8010  -0.4702   0.9794
     2.0828   2.6780   3.6174   4.5019   5.4836   5.9316   6.2774   6.7141

          k = 0.3750-0.3536 0.0000 ( 15056 PWs)   bands (ev):

    -4.6865  -4.6801  -4.1303  -4.1223  -3.9929  -3.9896  -3.8470  -3.8411
    -3.5469  -3.5460  -3.4813  -3.4799  -3.3940  -3.3840  -3.2641  -3.2551
    -2.8795  -2.8791  -2.6691  -2.6661  -2.4205  -2.4131  -2.1080  -2.1050
    -2.0353  -2.0345  -1.9418  -1.9398  -1.8157  -1.8117   0.6306   0.6340
     2.0785   2.0785   3.9262   3.9357   5.9839   5.9874   6.6460   6.6502

          k = 0.3750-0.2652 0.0000 ( 15057 PWs)   bands (ev):

    -4.7126  -4.5751  -4.3594  -4.2736  -4.1854  -4.0617  -3.7959  -3.7701
    -3.7205  -3.6215  -3.5308  -3.3419  -3.2629  -3.2184  -3.2007  -3.1136
    -2.9782  -2.8928  -2.6648  -2.5835  -2.3765  -2.2477  -2.2358  -2.1600
    -2.0897  -1.9319  -1.8993  -1.8294  -1.8068  -1.8010  -0.4702   0.9794
     2.0828   2.6780   3.6174   4.5019   5.4836   5.9316   6.2774   6.7141

          k = 0.3750-0.1768 0.0000 ( 15049 PWs)   bands (ev):

    -4.6625  -4.5804  -4.5585  -4.4530  -4.3543  -4.3106  -4.0054  -3.9422
    -3.8083  -3.6779  -3.4144  -3.2492  -3.1960  -3.1303  -3.0874  -3.0324
    -2.7979  -2.7151  -2.5935  -2.4868  -2.3691  -2.2479  -2.2066  -2.0330
    -2.0246  -1.9259  -1.8218  -1.8054  -1.7583  -1.7547  -1.0576   0.1218
     1.8553   3.4486   3.8788   4.7238   5.2138   5.9159   6.1885   6.8324

          k = 0.3750-0.0884 0.0000 ( 15052 PWs)   bands (ev):

    -4.7288  -4.7202  -4.6312  -4.6243  -4.4286  -4.2021  -4.1851  -4.1241
    -3.8606  -3.6860  -3.4688  -3.3421  -3.3251  -3.2385  -2.9335  -2.8410
    -2.6303  -2.5595  -2.4552  -2.4411  -2.2241  -2.1753  -2.1344  -1.9781
    -1.9672  -1.8701  -1.8134  -1.7982  -1.7017  -1.6462  -1.1717  -0.4921
     1.1511   3.2081   3.7802   4.5422   5.7796   6.3211   6.4546   7.3620

          k =-0.5000 0.0000 0.0000 ( 14992 PWs)   bands (ev):

    -4.9025  -4.8934  -4.7965  -4.7898  -4.2863  -4.2794  -4.2675  -4.2607
    -3.6421  -3.6259  -3.6211  -3.6033  -3.3882  -3.3766  -2.6538  -2.6515
    -2.5875  -2.5748  -2.3041  -2.3032  -2.0194  -2.0191  -1.8788  -1.8785
    -1.8585  -1.8516  -1.6556  -1.6546  -1.6000  -1.5946   0.9140   0.9152
     1.6672   1.6703   2.8030   2.8069   5.4455   5.4576   8.4965   8.5061

          k =-0.5000 0.0884 0.0000 ( 14998 PWs)   bands (ev):

    -4.8303  -4.8214  -4.7465  -4.7395  -4.3924  -4.3851  -4.1635  -4.1573
    -3.8085  -3.7990  -3.4413  -3.4303  -3.2976  -3.2910  -2.6745  -2.6636
    -2.6074  -2.6058  -2.3953  -2.3914  -2.0688  -2.0653  -1.9288  -1.9261
    -1.8693  -1.8654  -1.7258  -1.7256  -1.5917  -1.5911   0.9847   0.9862
     1.8670   1.8698   3.0992   3.1041   5.5876   5.5994   8.5057   8.5139

          k =-0.5000 0.1768 0.0000 ( 15026 PWs)   bands (ev):

    -4.6685  -4.6676  -4.6269  -4.6235  -4.4828  -4.4791  -3.9844  -3.9746
    -3.8409  -3.8317  -3.3961  -3.3868  -3.1708  -3.1630  -2.8686  -2.8618
    -2.6194  -2.6138  -2.5655  -2.5585  -2.1740  -2.1701  -2.1028  -2.0994
    -1.9010  -1.9004  -1.6618  -1.6611  -1.6052  -1.6043   1.1845   1.1866
     2.3793   2.3815   3.8499   3.8559   5.9872   5.9975   6.8101   6.8141

          k =-0.5000 0.2652 0.0000 ( 15032 PWs)   bands (ev):

    -4.7575  -4.7513  -4.3925  -4.3914  -4.2774  -4.2770  -3.8164  -3.8055
    -3.7552  -3.7520  -3.4567  -3.4561  -3.2398  -3.2305  -3.1250  -3.1201
    -2.7977  -2.7920  -2.6570  -2.6538  -2.2659  -2.2636  -2.0886  -2.0880
    -1.7936  -1.7929  -1.6656  -1.6651  -1.6154  -1.6135   1.4672   1.4700
     3.0475   3.0489   4.7809   4.7861   5.4500   5.4520   6.1805   6.1847

          k =-0.5000-0.3536 0.0000 ( 15032 PWs)   bands (ev):

    -4.8069  -4.8012  -4.1918  -4.1877  -4.1866  -4.1777  -3.8097  -3.8057
    -3.5650  -3.5565  -3.5541  -3.5509  -3.4046  -3.4037  -3.3070  -3.2984
    -2.7352  -2.7320  -2.7178  -2.7136  -2.3771  -2.3697  -2.0198  -2.0194
    -1.7380  -1.7370  -1.6908  -1.6901  -1.6053  -1.6041   1.6343   1.6375
     3.4787   3.4793   4.8719   4.8755   5.3425   5.3454   5.6689   5.6827

     the Fermi energy is     1.1817 ev

!    total energy              =    -505.67922418 Ry
     estimated scf accuracy    <          8.5E-09 Ry
     smearing contrib. (-TS)   =      -0.00194259 Ry
     internal energy E=F+TS    =    -505.67728160 Ry

     The total energy is F=E-TS. E is the sum of the following terms:
     one-electron contribution =   -5176.36003113 Ry
     hartree contribution      =    2634.01343162 Ry
     xc contribution           =    -133.89599587 Ry
     ewald contribution        =    2170.71747792 Ry
     DFT-D3 Dispersion         =      -0.15216413 Ry

     convergence has been achieved in   7 iterations

     negative rho (up, down):  1.781E-05 0.000E+00

     Forces acting on atoms (cartesian axes, Ry/au):

     atom    1 type  1   force =     0.00000017   -0.00000046    0.00659067
     atom    2 type  1   force =    -0.00000001   -0.00000018   -0.00617760
     atom    3 type  1   force =    -0.00000005   -0.00000023    0.00317202
     atom    4 type  1   force =     0.00000016    0.00000085   -0.00283615
     atom    5 type  1   force =    -0.00000001   -0.00000027    0.00747889
     atom    6 type  1   force =    -0.00000027    0.00000028   -0.00822783
     The non-local contrib.  to forces
     atom    1 type  1   force =     0.00000028   -0.00000087    0.00493210
     atom    2 type  1   force =    -0.00000024   -0.00000046    0.13561363
     atom    3 type  1   force =     0.00000009    0.00000034   -0.02199545
     atom    4 type  1   force =     0.00000021    0.00000065    0.02260306
     atom    5 type  1   force =    -0.00000008    0.00000003   -0.13524448
     atom    6 type  1   force =    -0.00000016    0.00000030   -0.00746978
     The ionic contribution  to forces
     atom    1 type  1   force =     0.00000401   -0.00001019   74.06564046
     atom    2 type  1   force =    -0.00000143    0.00000454  114.99905943
     atom    3 type  1   force =     0.00000083   -0.00000116  -24.21277262
     atom    4 type  1   force =    -0.00000339    0.00000671   24.12480136
     atom    5 type  1   force =     0.00000000   -0.00000001 -115.02851648
     atom    6 type  1   force =    -0.00000002    0.00000012  -73.94821216
     The local contribution  to forces
     atom    1 type  1   force =    -0.00000369    0.00001050  -74.05654788
     atom    2 type  1   force =     0.00000136   -0.00000490 -115.13019830
     atom    3 type  1   force =    -0.00000105    0.00000114   24.23548554
     atom    4 type  1   force =     0.00000312   -0.00000739  -24.14772094
     atom    5 type  1   force =     0.00000013    0.00000042  115.16110189
     atom    6 type  1   force =     0.00000004   -0.00000032   73.93937768
     The core correction contribution to forces
     atom    1 type  1   force =     0.00000000    0.00000003   -0.00246969
     atom    2 type  1   force =     0.00000000   -0.00000001   -0.00624169
     atom    3 type  1   force =    -0.00000001    0.00000000   -0.00002757
     atom    4 type  1   force =    -0.00000000   -0.00000005   -0.00002209
     atom    5 type  1   force =     0.00000000    0.00000002    0.00604993
     atom    6 type  1   force =     0.00000000   -0.00000001    0.00270763
     The Hubbard contrib.    to forces
     atom    1 type  1   force =     0.00000000    0.00000000    0.00000000
     atom    2 type  1   force =     0.00000000    0.00000000    0.00000000
     atom    3 type  1   force =     0.00000000    0.00000000    0.00000000
     atom    4 type  1   force =     0.00000000    0.00000000    0.00000000
     atom    5 type  1   force =     0.00000000    0.00000000    0.00000000
     atom    6 type  1   force =     0.00000000    0.00000000    0.00000000
     The SCF correction term to forces
     atom    1 type  1   force =    -0.00000046    0.00000017    0.00012634
     atom    2 type  1   force =     0.00000025    0.00000076   -0.00026012
     atom    3 type  1   force =     0.00000000   -0.00000000   -0.00000000
     atom    4 type  1   force =     0.00000000    0.00000000    0.00000000
     atom    5 type  1   force =    -0.00000000   -0.00000000    0.00000000
     atom    6 type  1   force =    -0.00000000    0.00000000    0.00000000

     DFT-D3 dispersion contribution to forces:
     atom    1 type  1   force =    -0.00000001    0.00000001   -0.00509546
     atom    2 type  1   force =     0.00000000   -0.00000000   -0.00415536
     atom    3 type  1   force =     0.00000000   -0.00000000    0.00251617
     atom    4 type  1   force =     0.00000001   -0.00000001   -0.00253406
     atom    5 type  1   force =    -0.00000000    0.00000000    0.00405700
     atom    6 type  1   force =    -0.00000000    0.00000000    0.00521171

     Total force =     0.009033     Total SCF correction =     0.000289


     Computing stress (Cartesian axis) and pressure


     negative rho (up, down):  1.781E-05 0.000E+00
          total   stress  (Ry/bohr**3)                   (kbar)     P=      -13.90
  -0.00010509   0.00000000  -0.00000000          -15.46        0.00       -0.00
   0.00000000  -0.00011730   0.00000000            0.00      -17.26        0.00
  -0.00000000   0.00000000  -0.00006110           -0.00        0.00       -8.99

     Energy error            =      1.2E-04 Ry
     Gradient error          =      6.6E-03 Ry/Bohr

     number of scf cycles    =   3
     number of bfgs steps    =   2

     energy             old  =    -505.6791022687 Ry
     energy             new  =    -505.6792241826 Ry

     CASE: energy            _new < energy            _old

     new trust radius        =       0.0135662160 bohr
     new conv_thr            =       0.0000000122 Ry


ATOMIC_POSITIONS (angstrom)
Ag            2.1766612237        3.0782679854       15.8207014125
Ag            0.7255521618        1.0260895073       17.2402280463
[...]
    -3.0661  -3.0372  -2.7604  -2.7364  -2.6944  -2.6297  -2.4582  -2.3409
    -2.3262  -2.1423  -2.1275  -1.9763  -1.8505  -1.8211  -1.8015  -1.2766
    -0.1348   0.1234   1.2305   2.2155   2.8218   3.6423   6.0752   6.4143

          k = 0.1250-0.3536 0.0000 ( 15168 PWs)   bands (ev):

    -4.7259  -4.6897  -4.3355  -4.3256  -4.1064  -4.0569  -3.9180  -3.8510
    -3.5942  -3.5627  -3.4361  -3.4164  -3.3073  -3.2888  -3.1371  -3.1134
    -3.0474  -3.0217  -2.7384  -2.7228  -2.6900  -2.6748  -2.2835  -2.2587
    -2.2388  -2.2181  -2.0994  -2.0774  -1.9169  -1.8881  -1.3177  -1.3092
    -0.3175  -0.3033   1.3852   1.4064   3.0319   3.0929   6.3896   6.4033

          k = 0.1250-0.2652 0.0000 ( 15153 PWs)   bands (ev):

    -4.7341  -4.7045  -4.5805  -4.3460  -4.2111  -4.0787  -3.9990  -3.8180
    -3.6250  -3.5887  -3.4273  -3.3761  -3.2352  -3.2064  -3.1461  -3.1187
    -3.0661  -3.0372  -2.7604  -2.7364  -2.6944  -2.6297  -2.4582  -2.3409
    -2.3262  -2.1423  -2.1275  -1.9763  -1.8505  -1.8211  -1.8015  -1.2766
    -0.1348   0.1234   1.2305   2.2155   2.8218   3.6423   6.0752   6.4143

          k = 0.1250-0.1768 0.0000 ( 15135 PWs)   bands (ev):

    -5.1992  -4.6810  -4.4987  -4.4834  -4.4350  -4.1887  -4.0012  -3.8138
    -3.6955  -3.6069  -3.4790  -3.4055  -3.2373  -3.2115  -3.1490  -3.1033
    -3.0467  -3.0319  -2.8330  -2.7401  -2.6911  -2.6485  -2.6148  -2.3160
    -2.2755  -2.1571  -2.0843  -1.8957  -1.8395  -1.8083  -1.7722  -1.7615
    -0.5060   1.3302   1.6868   2.8413   3.5490   4.4523   5.7492   6.0543

          k = 0.1250-0.0884 0.0000 ( 15111 PWs)   bands (ev):

    -5.5818  -4.7329  -4.6474  -4.5241  -4.3191  -4.2655  -3.9897  -3.8674
    -3.7768  -3.6557  -3.5776  -3.4165  -3.3814  -3.2446  -3.1909  -3.1703
    -3.1306  -2.9980  -2.7949  -2.7086  -2.6420  -2.5394  -2.4481  -2.3881
    -2.2541  -2.1966  -2.1130  -1.9495  -1.8986  -1.8789  -1.7604  -1.6333
    -0.8312   1.1566   3.2184   3.2684   4.7207   5.1167   5.6658   6.2357

          k = 0.2500-0.0000 0.0000 ( 15101 PWs)   bands (ev):

    -4.9715  -4.5864  -4.4663  -4.4467  -4.3775  -4.3318  -4.1531  -3.9569
    -3.7993  -3.7935  -3.6844  -3.4930  -3.3284  -3.1788  -3.0931  -2.9993
    -2.7065  -2.6770  -2.6447  -2.5690  -2.5459  -2.3725  -2.3724  -2.3700
    -2.1729  -2.1298  -2.0274  -2.0174  -1.9638  -1.8912  -1.6095  -1.5772
    -0.3844   1.8307   4.0054   5.8029   5.9751   6.3569   6.8661   7.0966

          k = 0.2500 0.0884 0.0000 ( 15103 PWs)   bands (ev):

    -4.8978  -4.5390  -4.4529  -4.4137  -4.2923  -4.2321  -4.1359  -3.9390
    -3.8008  -3.7259  -3.6326  -3.4794  -3.2892  -3.2146  -3.0833  -3.0179
    -2.9298  -2.7334  -2.6363  -2.6113  -2.5693  -2.4741  -2.4341  -2.3396
    -2.1984  -2.1022  -2.0809  -2.0219  -1.8136  -1.7718  -1.6677  -1.6379
    -0.1592   2.0185   4.1477   4.5910   5.8082   5.9561   6.5084   6.9944

          k = 0.2500 0.1768 0.0000 ( 15121 PWs)   bands (ev):

    -4.7215  -4.4478  -4.3995  -4.2903  -4.0695  -4.0553  -4.0118  -3.8460
    -3.7719  -3.6310  -3.5772  -3.4640  -3.3577  -3.2099  -3.1002  -3.0526
    -2.9541  -2.9214  -2.7472  -2.6756  -2.6229  -2.5839  -2.5327  -2.4379
    -2.2689  -2.2302  -2.1258  -1.9381  -1.8027  -1.7873  -1.7529  -1.2073
     0.4343   2.4111   2.7919   3.8172   4.6318   5.4976   6.4929   6.8986

          k = 0.2500 0.2652 0.0000 ( 15099 PWs)   bands (ev):

    -4.5332  -4.3362  -4.3000  -4.2663  -3.8690  -3.8659  -3.7566  -3.7289
    -3.7132  -3.6678  -3.5652  -3.4526  -3.3616  -3.2003  -3.1180  -3.0951
    -3.0088  -2.9219  -2.8177  -2.7636  -2.6986  -2.6798  -2.6619  -2.5001
    -2.3655  -2.2962  -2.2362  -1.9338  -1.8992  -1.8664  -1.4740  -0.3929
     0.9240   1.2078   2.2698   3.2603   3.9663   4.8602   6.7188   7.2046

          k = 0.2500-0.3536 0.0000 ( 15096 PWs)   bands (ev):

    -4.4035  -4.3562  -4.2542  -4.2091  -3.8990  -3.8627  -3.7072  -3.6921
    -3.5897  -3.5732  -3.4822  -3.4324  -3.2695  -3.2675  -3.1578  -3.1561
    -2.9796  -2.9767  -2.7802  -2.7590  -2.7468  -2.7252  -2.7120  -2.6924
    -2.3518  -2.3481  -2.1380  -2.1106  -1.9455  -1.9209  -0.5076  -0.4971
     0.6881   0.6929   2.4920   2.5270   4.2597   4.2926   7.0661   7.0802

          k = 0.2500-0.2652 0.0000 ( 15099 PWs)   bands (ev):

    -4.5332  -4.3362  -4.3000  -4.2663  -3.8690  -3.8659  -3.7566  -3.7289
    -3.7132  -3.6678  -3.5652  -3.4526  -3.3616  -3.2003  -3.1180  -3.0951
    -3.0088  -2.9219  -2.8177  -2.7636  -2.6986  -2.6798  -2.6619  -2.5001
    -2.3655  -2.2962  -2.2362  -1.9338  -1.8992  -1.8664  -1.4740  -0.3929
     0.9240   1.2078   2.2698   3.2603   3.9663   4.8602   6.7188   7.2046

          k = 0.2500-0.1768 0.0000 ( 15121 PWs)   bands (ev):

    -4.7215  -4.4478  -4.3995  -4.2903  -4.0695  -4.0553  -4.0118  -3.8460
    -3.7719  -3.6310  -3.5772  -3.4640  -3.3577  -3.2099  -3.1002  -3.0526
    -2.9541  -2.9214  -2.7472  -2.6756  -2.6229  -2.5839  -2.5327  -2.4379
    -2.2689  -2.2302  -2.1258  -1.9381  -1.8027  -1.7873  -1.7529  -1.2073
     0.4343   2.4111   2.7919   3.8172   4.6318   5.4976   6.4929   6.8986

          k = 0.2500-0.0884 0.0000 ( 15103 PWs)   bands (ev):

    -4.8978  -4.5390  -4.4529  -4.4137  -4.2923  -4.2321  -4.1359  -3.9390
    -3.8008  -3.7259  -3.6326  -3.4794  -3.2892  -3.2146  -3.0833  -3.0179
    -2.9298  -2.7334  -2.6363  -2.6113  -2.5693  -2.4741  -2.4341  -2.3396
    -2.1984  -2.1022  -2.0809  -2.0219  -1.8136  -1.7718  -1.6677  -1.6379
    -0.1592   2.0185   4.1477   4.5910   5.8082   5.9561   6.5084   6.9944

          k = 0.3750-0.0000 0.0000 ( 15069 PWs)   bands (ev):

    -4.8095  -4.7562  -4.6906  -4.6522  -4.3994  -4.2744  -4.2344  -4.1344
    -3.8657  -3.6373  -3.5833  -3.5070  -3.4674  -3.2771  -2.9430  -2.7346
    -2.5512  -2.5223  -2.4593  -2.3040  -2.2465  -2.1293  -1.9973  -1.9611
    -1.9316  -1.8526  -1.8388  -1.8141  -1.6472  -1.5597  -1.1756  -0.7419
     0.8518   2.9829   3.6953   4.3437   5.6518   6.1531   7.6829   7.7416

          k = 0.3750 0.0884 0.0000 ( 15052 PWs)   bands (ev):

    -4.7450  -4.7009  -4.6390  -4.6035  -4.4521  -4.2200  -4.1903  -4.1449
    -3.8867  -3.7110  -3.5122  -3.3590  -3.3385  -3.2663  -2.9422  -2.8426
    -2.6389  -2.5542  -2.4600  -2.4395  -2.2220  -2.1895  -2.1325  -1.9848
    -1.9691  -1.8677  -1.8127  -1.7938  -1.7038  -1.6423  -1.1713  -0.5097
     1.1501   3.2299   3.7809   4.5368   5.7921   6.3302   6.4538   7.3566

          k = 0.3750 0.1768 0.0000 ( 15049 PWs)   bands (ev):

    -4.6563  -4.5904  -4.5427  -4.4626  -4.3577  -4.3199  -4.0208  -3.9688
    -3.8338  -3.6936  -3.4463  -3.2783  -3.2064  -3.1519  -3.0997  -3.0252
    -2.8007  -2.7073  -2.6047  -2.4894  -2.3794  -2.2607  -2.2210  -2.0304
    -2.0199  -1.9291  -1.8223  -1.8034  -1.7650  -1.7513  -1.0585   0.1016
     1.8564   3.4529   3.8985   4.7099   5.2112   5.9138   6.2001   6.8420

          k = 0.3750 0.2652 0.0000 ( 15057 PWs)   bands (ev):

    -4.7113  -4.5699  -4.3670  -4.2729  -4.1963  -4.0631  -3.8125  -3.8008
    -3.7296  -3.6311  -3.5391  -3.3610  -3.2839  -3.2287  -3.2027  -3.1173
    -3.0017  -2.9032  -2.6745  -2.5908  -2.3839  -2.2556  -2.2451  -2.1694
    -2.0932  -1.9310  -1.9016  -1.8388  -1.8099  -1.7985  -0.4732   0.9603
     2.0831   2.6837   3.5970   4.5201   5.4813   5.9358   6.2764   6.7203

          k = 0.3750-0.3536 0.0000 ( 15056 PWs)   bands (ev):

    -4.6970  -4.6648  -4.1524  -4.1145  -4.0101  -3.9928  -3.8567  -3.8267
    -3.5618  -3.5547  -3.5072  -3.4881  -3.4317  -3.3864  -3.2867  -3.2369
    -2.9024  -2.9019  -2.6829  -2.6647  -2.4421  -2.4095  -2.1283  -2.1134
    -2.0341  -2.0317  -1.9526  -1.9437  -1.8254  -1.8055   0.6215   0.6379
     2.0650   2.0653   3.9080   3.9540   5.9893   6.0067   6.6357   6.6565

          k = 0.3750-0.2652 0.0000 ( 15057 PWs)   bands (ev):

    -4.7113  -4.5699  -4.3670  -4.2729  -4.1963  -4.0631  -3.8125  -3.8008
    -3.7296  -3.6311  -3.5391  -3.3610  -3.2839  -3.2287  -3.2027  -3.1173
    -3.0017  -2.9032  -2.6745  -2.5908  -2.3839  -2.2556  -2.2451  -2.1694
    -2.0932  -1.9310  -1.9016  -1.8388  -1.8099  -1.7985  -0.4732   0.9603
     2.0831   2.6837   3.5970   4.5201   5.4813   5.9358   6.2764   6.7203

          k = 0.3750-0.1768 0.0000 ( 15049 PWs)   bands (ev):

    -4.6563  -4.5904  -4.5427  -4.4626  -4.3577  -4.3199  -4.0208  -3.9688
    -3.8338  -3.6936  -3.4463  -3.2783  -3.2064  -3.1519  -3.0997  -3.0252
    -2.8007  -2.7073  -2.6047  -2.4894  -2.3794  -2.2607  -2.2210  -2.0304
    -2.0199  -1.9291  -1.8223  -1.8034  -1.7650  -1.7513  -1.0585   0.1016
     1.8564   3.4529   3.8985   4.7099   5.2112   5.9138   6.2001   6.8420

          k = 0.3750-0.0884 0.0000 ( 15052 PWs)   bands (ev):

    -4.7450  -4.7009  -4.6390  -4.6035  -4.4521  -4.2200  -4.1903  -4.1449
    -3.8867  -3.7110  -3.5122  -3.3590  -3.3385  -3.2663  -2.9422  -2.8426
    -2.6389  -2.5542  -2.4600  -2.4395  -2.2220  -2.1895  -2.1325  -1.9848
    -1.9691  -1.8677  -1.8127  -1.7938  -1.7038  -1.6423  -1.1713  -0.5097
     1.1501   3.2299   3.7809   4.5368   5.7921   6.3302   6.4538   7.3566

          k =-0.5000 0.0000 0.0000 ( 14992 PWs)   bands (ev):

    -4.9190  -4.8733  -4.8075  -4.7733  -4.3197  -4.3023  -4.2870  -4.2710
    -3.6932  -3.6744  -3.6078  -3.5949  -3.4395  -3.3837  -2.6726  -2.6591
    -2.6016  -2.5368  -2.3019  -2.2990  -2.0321  -2.0285  -1.8736  -1.8726
    -1.8690  -1.8354  -1.6620  -1.6573  -1.6098  -1.5833   0.9120   0.9181
     1.6454   1.6599   2.7933   2.8153   5.4454   5.5065   8.4945   8.5406

          k =-0.5000 0.0884 0.0000 ( 14998 PWs)   bands (ev):

    -4.8470  -4.8022  -4.7561  -4.7211  -4.4216  -4.3853  -4.1999  -4.1699
    -3.8565  -3.8061  -3.4938  -3.4364  -3.3221  -3.2881  -2.6929  -2.6433
    -2.6168  -2.6121  -2.4021  -2.3841  -2.0758  -2.0568  -1.9362  -1.9238
    -1.8728  -1.8549  -1.7324  -1.7316  -1.5931  -1.5902   0.9817   0.9893
     1.8446   1.8579   3.0883   3.1147   5.5878   5.6469   8.5039   8.5432

          k =-0.5000 0.1768 0.0000 ( 15026 PWs)   bands (ev):

    -4.6726  -4.6621  -4.6292  -4.6024  -4.5040  -4.4885  -4.0335  -3.9819
    -3.8782  -3.8344  -3.4430  -3.3963  -3.1881  -3.1480  -2.8972  -2.8621
    -2.6273  -2.6139  -2.5814  -2.5371  -2.1906  -2.1694  -2.1089  -2.0921
    -1.9079  -1.9068  -1.6657  -1.6622  -1.6088  -1.6043   1.1793   1.1899
     2.3555   2.3666   3.8380   3.8686   5.9883   6.0393   6.8002   6.8197

          k =-0.5000 0.2652 0.0000 ( 15032 PWs)   bands (ev):

    -4.7664  -4.7349  -4.4032  -4.4001  -4.2810  -4.2755  -3.8654  -3.8076
    -3.7746  -3.7585  -3.4754  -3.4694  -3.2575  -3.2084  -3.1446  -3.1188
    -2.8244  -2.7995  -2.6747  -2.6573  -2.2725  -2.2639  -2.1017  -2.0997
    -1.7968  -1.7930  -1.6707  -1.6684  -1.6218  -1.6123   1.4594   1.4731
     3.0216   3.0290   4.7705   4.7962   5.4466   5.4573   6.1758   6.1965

          k =-0.5000-0.3536 0.0000 ( 15032 PWs)   bands (ev):

    -4.8160  -4.7869  -4.2194  -4.2051  -4.1949  -4.1549  -3.8231  -3.8049
    -3.6276  -3.5599  -3.5535  -3.5455  -3.4183  -3.4150  -3.3242  -3.2765
    -2.7611  -2.7468  -2.7412  -2.7171  -2.4000  -2.3666  -2.0331  -2.0307
    -1.7372  -1.7330  -1.6968  -1.6936  -1.6122  -1.6059   1.6249   1.6406
     3.4498   3.4535   4.8619   4.8799   5.3454   5.3592   5.6399   5.7055

     the Fermi energy is     1.1799 ev

!    total energy              =    -505.67964162 Ry
     estimated scf accuracy    <          1.3E-09 Ry
     smearing contrib. (-TS)   =      -0.00192442 Ry
     internal energy E=F+TS    =    -505.67771720 Ry

     The total energy is F=E-TS. E is the sum of the following terms:
     one-electron contribution =   -5181.14424353 Ry
     hartree contribution      =    2636.39270248 Ry
     xc contribution           =    -133.90158125 Ry
     ewald contribution        =    2173.12752180 Ry
     DFT-D3 Dispersion         =      -0.15211672 Ry

     convergence has been achieved in   6 iterations

     negative rho (up, down):  1.930E-05 0.000E+00

     Forces acting on atoms (cartesian axes, Ry/au):

     atom    1 type  1   force =     0.00000010   -0.00000010   -0.00026540
     atom    2 type  1   force =    -0.00000016   -0.00000015   -0.00020227
     atom    3 type  1   force =     0.00000008    0.00000008    0.00480247
     atom    4 type  1   force =    -0.00000011    0.00000013   -0.00369314
     atom    5 type  1   force =     0.00000005    0.00000002    0.00740828
     atom    6 type  1   force =     0.00000004    0.00000003   -0.00804994
     The non-local contrib.  to forces
     atom    1 type  1   force =    -0.00000002   -0.00000014   -0.00487487
     atom    2 type  1   force =    -0.00000012   -0.00000027    0.13669357
     atom    3 type  1   force =     0.00000006    0.00000010   -0.02040506
     atom    4 type  1   force =    -0.00000010    0.00000006    0.02325042
     atom    5 type  1   force =     0.00000001   -0.00000003   -0.13518019
     atom    6 type  1   force =    -0.00000003   -0.00000002   -0.00735930
     The ionic contribution  to forces
     atom    1 type  1   force =     0.00000495   -0.00000515   74.55871685
     atom    2 type  1   force =    -0.00000080   -0.00000012  114.84500315
     atom    3 type  1   force =     0.00000149   -0.00000116  -24.14271901
     atom    4 type  1   force =    -0.00000560    0.00000633   23.71291364
     atom    5 type  1   force =     0.00000000   -0.00000001 -115.02400010
     atom    6 type  1   force =    -0.00000004    0.00000011  -73.94991454
     The local contribution  to forces
     atom    1 type  1   force =    -0.00000478    0.00000507  -74.54798665
     atom    2 type  1   force =     0.00000080    0.00000027 -114.97036044
     atom    3 type  1   force =    -0.00000151    0.00000109   24.16576230
     atom    4 type  1   force =     0.00000554   -0.00000625  -23.73738159
     atom    5 type  1   force =     0.00000001    0.00000004  115.15654409
     atom    6 type  1   force =     0.00000005   -0.00000007   73.94135193
     The core correction contribution to forces
     atom    1 type  1   force =    -0.00000001    0.00000001   -0.00152590
     atom    2 type  1   force =    -0.00000000    0.00000001   -0.00704106
     atom    3 type  1   force =    -0.00000000   -0.00000000   -0.00030783
     atom    4 type  1   force =     0.00000002   -0.00000001    0.00010020
     atom    5 type  1   force =     0.00000000    0.00000000    0.00604624
     atom    6 type  1   force =    -0.00000000    0.00000000    0.00270788
     The Hubbard contrib.    to forces
     atom    1 type  1   force =     0.00000000    0.00000000    0.00000000
     atom    2 type  1   force =     0.00000000    0.00000000    0.00000000
     atom    3 type  1   force =     0.00000000    0.00000000    0.00000000
     atom    4 type  1   force =     0.00000000    0.00000000    0.00000000
     atom    5 type  1   force =     0.00000000    0.00000000    0.00000000
     atom    6 type  1   force =     0.00000000    0.00000000    0.00000000
     The SCF correction term to forces
     atom    1 type  1   force =    -0.00000006    0.00000007    0.00001081
     atom    2 type  1   force =    -0.00000006   -0.00000006   -0.00000406
     atom    3 type  1   force =     0.00000000    0.00000000   -0.00000000
     atom    4 type  1   force =    -0.00000000   -0.00000000    0.00000000
     atom    5 type  1   force =    -0.00000000   -0.00000000   -0.00000000
     atom    6 type  1   force =     0.00000000   -0.00000000   -0.00000000

     DFT-D3 dispersion contribution to forces:
     atom    1 type  1   force =    -0.00000002    0.00000001   -0.00461227
     atom    2 type  1   force =    -0.00000000    0.00000000   -0.00450006
     atom    3 type  1   force =     0.00000000   -0.00000000    0.00248117
     atom    4 type  1   force =     0.00000002   -0.00000001   -0.00259013
     atom    5 type  1   force =    -0.00000000    0.00000000    0.00403819
     atom    6 type  1   force =    -0.00000000    0.00000000    0.00518311

     Total force =     0.000334     Total SCF correction =     0.000012


     Computing stress (Cartesian axis) and pressure


     negative rho (up, down):  1.930E-05 0.000E+00
          total   stress  (Ry/bohr**3)                   (kbar)     P=      -13.17
  -0.00010149   0.00000000   0.00000000          -14.93        0.00        0.00
   0.00000000  -0.00011032  -0.00000000            0.00      -16.23       -0.00
   0.00000000  -0.00000000  -0.00005680            0.00       -0.00       -8.36

     Energy error            =      7.9E-07 Ry
     Gradient error          =      2.7E-04 Ry/Bohr

     bfgs converged in   7 scf cycles and   6 bfgs steps
     (criteria: energy <  1.0E-04 Ry, force <  1.0E-03 Ry/Bohr)

     End of BFGS Geometry Optimization

     Final energy             =    -505.6796416249 Ry

     File ./Ag_110/Ag_110.bfgs deleted, as requested
Begin final coordinates

ATOMIC_POSITIONS (angstrom)
Ag            2.1766594765        3.0782683159       15.8491476023
Ag            0.7255497785        1.0260903366       17.2127617757
Ag            2.1766636603        3.0782672692       12.9022182138    0   0   0
Ag            0.7255545534        1.0260890897       14.3533273207    0   0   0
Ag            2.1766636603        3.0782672692       10.0000000000    0   0   0
Ag            0.7255545534        1.0260890897       11.4511091069    0   0   0
End final coordinates



     Writing all to output data dir ./Ag_110/Ag_110.save/

     init_run     :      2.51s CPU      5.30s WALL (       1 calls)
     electrons    :     27.93s CPU     37.77s WALL (       7 calls)
     update_pot   :      1.53s CPU      1.84s WALL (       6 calls)
     forces       :      3.02s CPU      4.36s WALL (       7 calls)
     force_dftd3  :      1.12s CPU      1.74s WALL (       7 calls)
     stress       :      7.01s CPU      7.51s WALL (       7 calls)
     stres_dftd3  :      0.06s CPU      0.09s WALL (       7 calls)

     Called by init_run:
     wfcinit      :      0.23s CPU      0.49s WALL (       1 calls)
     potinit      :      0.78s CPU      2.25s WALL (       1 calls)
     hinit0       :      1.36s CPU      2.14s WALL (       1 calls)

     Called by electrons:
     c_bands      :     21.50s CPU     23.04s WALL (      52 calls)
     sum_band     :      3.28s CPU      3.69s WALL (      52 calls)
     v_of_rho     :      1.43s CPU      8.15s WALL (      54 calls)
     newd         :      2.32s CPU      4.95s WALL (      54 calls)
     mix_rho      :      0.14s CPU      0.19s WALL (      52 calls)
     energy_dftd3 :      0.01s CPU      0.01s WALL (       7 calls)

     Called by c_bands:
     init_us_2    :      0.17s CPU      0.18s WALL (    1071 calls)
     init_us_2:cp :      0.16s CPU      0.18s WALL (    1071 calls)
     cegterg      :     19.82s CPU     20.77s WALL (     468 calls)

     Called by *egterg:
     cdiaghg      :      3.83s CPU      3.87s WALL (    1884 calls)
     h_psi        :     12.75s CPU     13.64s WALL (    1992 calls)
     s_psi        :      0.59s CPU      0.60s WALL (    1992 calls)
     g_psi        :      0.06s CPU      0.06s WALL (    1515 calls)

     Called by h_psi:
     h_psi:calbec :      1.02s CPU      1.18s WALL (    1992 calls)
     vloc_psi     :     11.11s CPU     11.81s WALL (    1992 calls)
     add_vuspsi   :      0.58s CPU      0.60s WALL (    1992 calls)

     General routines
     calbec       :      2.11s CPU      2.35s WALL (    2775 calls)
     fft          :      4.08s CPU     14.98s WALL (     874 calls)
     ffts         :      0.50s CPU      0.54s WALL (     106 calls)
     fftw         :     11.40s CPU     12.09s WALL (  121528 calls)
     interpolate  :      1.02s CPU      1.69s WALL (      54 calls)

     Parallel routines

     PWSCF        :     43.43s CPU     59.78s WALL


   This run was terminated on:  11:23:59  18Jul2025            

=------------------------------------------------------------------------------=
   JOB DONE.
=------------------------------------------------------------------------------=
