
     Program PWSCF v.7.2 starts on 24Jul2025 at  5:21:20 

     This program is part of the open-source Quantum ESPRESSO suite
     for quantum simulation of materials; please cite
         "P. Giannozzi et al., J. Phys.:Condens. Matter 21 395502 (2009);
         "P. Giannozzi et al., J. Phys.:Condens. Matter 29 465901 (2017);
         "P. Giannozzi et al., J. Chem. Phys. 152 154105 (2020);
          URL http://www.quantum-espresso.org", 
     in publications or presentations arising from this work. More details at
     http://www.quantum-espresso.org/quote

     Parallel version (MPI & OpenMP), running on     128 processor cores
     Number of MPI processes:               128
     Threads/MPI process:                     1

     MPI processes distributed on     2 nodes
     237279 MiB available memory on the printing compute node when the environment starts

     Reading input from Ag_mp-124_100_bridge_0.in

     Current dimensions of program PWSCF are:
     Max number of different atomic species (ntypx) = 10
     Max number of k-points (npk) =  40000
     Max angular momentum in pseudopotentials (lmaxx) =  4
     Message from routine iosys:
     restart disabled: needed files not found

     K-points division:     npool     =       4
     R & G space division:  proc/nbgrp/npool/nimage =      32
     Subspace diagonalization in iterative solution of the eigenvalue problem:
     a serial algorithm will be used


     Parallelization info
     --------------------
     sticks:   dense  smooth     PW     G-vecs:    dense   smooth      PW
     Min          37      16      5                10139     2936     487
     Max          38      17      6                10190     2975     521
     Sum        1201     517    161               325127    94489   16093

     Using Slab Decomposition



     bravais-lattice index     =            0
     lattice parameter (alat)  =       5.4844  a.u.
     unit-cell volume          =    1720.0396 (a.u.)^3
     number of atoms/cell      =            7
     number of atomic types    =            2
     number of electrons       =        69.00
     number of Kohn-Sham states=           42
     kinetic-energy cutoff     =      55.0000  Ry
     charge density cutoff     =     500.0000  Ry
     scf convergence threshold =      1.0E-06
     mixing beta               =       0.3000
     number of iterations used =            8  plain     mixing
     energy convergence thresh.=      1.0E-04
     force convergence thresh. =      1.0E-03
     Exchange-correlation= PBE
                           (   1   4   3   4   0   0   0)
     nstep                     =          500


     celldm(1)=   5.484398  celldm(2)=   0.000000  celldm(3)=   0.000000
     celldm(4)=   0.000000  celldm(5)=   0.000000  celldm(6)=   0.000000

     crystal axes: (cart. coord. in units of alat)
               a(1) = (   1.000000   0.000000   0.000000 )  
               a(2) = (   0.000000   1.000000   0.000000 )  
               a(3) = (   0.000000   0.000000  10.426814 )  

     reciprocal axes: (cart. coord. in units 2 pi/alat)
               b(1) = (  1.000000 -0.000000  0.000000 )  
               b(2) = (  0.000000  1.000000  0.000000 )  
               b(3) = ( -0.000000 -0.000000  0.095907 )  


     PseudoPot. # 1 for Li read from file:
     /home/ecastro/trabajo_final/pseudos/Li.pbe-s-rrkjus_psl.1.0.0.UPF
     MD5 check sum: 9f98d2529904d60b716d33989e9bc179
     Pseudo is Ultrasoft, Zval =  3.0
     Generated using &quot;atomic&quot; code by A. Dal Corso  v.6.3MaX
     Using radial grid of 1017 points,  4 beta functions with: 
                l(1) =   0
                l(2) =   0
                l(3) =   1
                l(4) =   1
     Q(r) pseudized with 0 coefficients 


     PseudoPot. # 2 for Ag read from file:
     /home/ecastro/trabajo_final/pseudos/Ag.pbe-n-rrkjus_psl.1.0.0.UPF
     MD5 check sum: 81cdf87bacf708300839c66ee23ce017
     Pseudo is Ultrasoft + core correction, Zval = 11.0
     Generated using &quot;atomic&quot; code by A. Dal Corso  v.6.2.2
     Using radial grid of 1237 points,  6 beta functions with: 
                l(1) =   0
                l(2) =   0
                l(3) =   1
                l(4) =   1
                l(5) =   2
                l(6) =   2
     Q(r) pseudized with 0 coefficients 


     atomic species   valence    mass     pseudopotential
        Li             3.00     6.94100     Li( 1.00)
        Ag            11.00   107.86820     Ag( 1.00)

     No symmetry found



   Cartesian axes

     site n.     atom                  positions (alat units)
         1           Ag  tau(   1) = (   0.7500000   0.2500000   4.1527471  )
         2           Ag  tau(   2) = (   0.2500000   0.7500000   3.4456403  )
         3           Ag  tau(   3) = (   0.7500000   0.2500000   5.5669606  )
         4           Ag  tau(   4) = (   0.2500000   0.7500000   4.8598538  )
         5           Ag  tau(   5) = (   0.7499994   0.2499989   6.9742602  )
         6           Ag  tau(   6) = (   0.2500010   0.7500043   6.2668291  )
         7           Li  tau(   7) = (   0.7499994   0.7499989   7.6633883  )

     --------------------------------------------
     DFT-D3 Dispersion Correction (no 3-body):
     --------------------------------------------
       Reference C6 values for interpolation: 

         atom   Coordination number   C6
         Li         0.000          2326.89
         Li         0.987           170.64
         Ag         0.000           853.49
         Ag         0.968           537.23

       Values used:

         atom   Coordination number  R0_AB[au]  C6      C8
         Ag         8.689            3.147    537.23  47741.54
         Ag         5.822            3.147    537.23  47741.54
         Ag         8.790            3.147    537.23  47741.54
         Ag         8.719            3.147    537.23  47741.54
         Ag         8.026            3.147    537.23  47741.54
         Ag         8.792            3.147    537.23  47741.54
         Li         5.718            3.303    170.64  12899.87

         Molecular C6 ( Ry / a.u.^6 ) =     22982.53


     number of k points=    34  Methfessel-Paxton smearing, width (Ry)=  0.0300
                       cart. coord. in units 2pi/alat
        k(    1) = (   0.0000000   0.0000000   0.0000000), wk =   0.0312500
        k(    2) = (   0.0000000   0.1250000   0.0000000), wk =   0.0625000
        k(    3) = (   0.0000000   0.2500000   0.0000000), wk =   0.0625000
        k(    4) = (   0.0000000   0.3750000   0.0000000), wk =   0.0625000
        k(    5) = (   0.0000000  -0.5000000   0.0000000), wk =   0.0312500
        k(    6) = (   0.1250000  -0.0000000   0.0000000), wk =   0.0625000
        k(    7) = (   0.1250000   0.1250000   0.0000000), wk =   0.0625000
        k(    8) = (   0.1250000   0.2500000   0.0000000), wk =   0.0625000
        k(    9) = (   0.1250000   0.3750000   0.0000000), wk =   0.0625000
        k(   10) = (   0.1250000  -0.5000000   0.0000000), wk =   0.0625000
        k(   11) = (   0.1250000  -0.3750000   0.0000000), wk =   0.0625000
        k(   12) = (   0.1250000  -0.2500000   0.0000000), wk =   0.0625000
        k(   13) = (   0.1250000  -0.1250000   0.0000000), wk =   0.0625000
        k(   14) = (   0.2500000  -0.0000000   0.0000000), wk =   0.0625000
        k(   15) = (   0.2500000   0.1250000   0.0000000), wk =   0.0625000
        k(   16) = (   0.2500000   0.2500000   0.0000000), wk =   0.0625000
        k(   17) = (   0.2500000   0.3750000   0.0000000), wk =   0.0625000
        k(   18) = (   0.2500000  -0.5000000   0.0000000), wk =   0.0625000
        k(   19) = (   0.2500000  -0.3750000   0.0000000), wk =   0.0625000
        k(   20) = (   0.2500000  -0.2500000   0.0000000), wk =   0.0625000
        k(   21) = (   0.2500000  -0.1250000   0.0000000), wk =   0.0625000
        k(   22) = (   0.3750000  -0.0000000   0.0000000), wk =   0.0625000
        k(   23) = (   0.3750000   0.1250000   0.0000000), wk =   0.0625000
        k(   24) = (   0.3750000   0.2500000   0.0000000), wk =   0.0625000
        k(   25) = (   0.3750000   0.3750000   0.0000000), wk =   0.0625000
        k(   26) = (   0.3750000  -0.5000000   0.0000000), wk =   0.0625000
        k(   27) = (   0.3750000  -0.3750000   0.0000000), wk =   0.0625000
        k(   28) = (   0.3750000  -0.2500000   0.0000000), wk =   0.0625000
        k(   29) = (   0.3750000  -0.1250000   0.0000000), wk =   0.0625000
        k(   30) = (  -0.5000000   0.0000000   0.0000000), wk =   0.0312500
        k(   31) = (  -0.5000000   0.1250000   0.0000000), wk =   0.0625000
        k(   32) = (  -0.5000000   0.2500000   0.0000000), wk =   0.0625000
        k(   33) = (  -0.5000000   0.3750000   0.0000000), wk =   0.0625000
        k(   34) = (  -0.5000000  -0.5000000   0.0000000), wk =   0.0312500

     Dense  grid:   325127 G-vectors     FFT dimensions: (  40,  40, 432)

     Smooth grid:    94489 G-vectors     FFT dimensions: (  25,  25, 270)

     Estimated max dynamical RAM per process >      20.59 MB

     Estimated total dynamical RAM >       2.34 GB
     Cannot read rho : file not found

     Initial potential from superposition of free atoms

     starting charge      68.9930, renormalised to      69.0000

     negative rho (up, down):  3.308E-05 0.000E+00
     Message from routine qexsd_readschema :
     xml data file ./Ag_mp-124_100_bridge_0/Ag_mp-124_100_bridge_0.save/data-file-sch
     Cannot read wfcs: file not found
     Starting wfcs are   59 randomized atomic wfcs

     total cpu time spent up to now is        8.6 secs

     per-process dynamical memory:   175.9 Mb

     Self-consistent Calculation

     iteration #  1     ecut=    55.00 Ry     beta= 0.30
     Davidson diagonalization with overlap
     c_bands:  1 eigenvalues not converged
     c_bands:  2 eigenvalues not converged
     c_bands:  2 eigenvalues not converged
     c_bands:  1 eigenvalues not converged
     ethr =  1.00E-05,  avg # of iterations = 18.0

     negative rho (up, down):  2.657E-05 0.000E+00

     total cpu time spent up to now is       13.5 secs

     total energy              =    -520.52007716 Ry
     estimated scf accuracy    <       0.28386198 Ry

     iteration #  2     ecut=    55.00 Ry     beta= 0.30
     Davidson diagonalization with overlap
     ethr =  4.11E-04,  avg # of iterations =  7.7

     negative rho (up, down):  7.419E-05 0.000E+00

     total cpu time spent up to now is       15.5 secs

     total energy              =    -520.12011033 Ry
     estimated scf accuracy    <      17.08966436 Ry

     iteration #  3     ecut=    55.00 Ry     beta= 0.30
     Davidson diagonalization with overlap
     ethr =  4.11E-04,  avg # of iterations =  7.7

     negative rho (up, down):  9.557E-05 0.000E+00

     total cpu time spent up to now is       16.6 secs

     total energy              =    -520.56281157 Ry
     estimated scf accuracy    <       0.87722235 Ry

     iteration #  4     ecut=    55.00 Ry     beta= 0.30
     Davidson diagonalization with overlap
     ethr =  4.11E-04,  avg # of iterations =  2.5

     negative rho (up, down):  6.482E-05 0.000E+00

     total cpu time spent up to now is       17.3 secs

     total energy              =    -520.59678190 Ry
     estimated scf accuracy    <       0.43769126 Ry

     iteration #  5     ecut=    55.00 Ry     beta= 0.30
     Davidson diagonalization with overlap
     ethr =  4.11E-04,  avg # of iterations =  1.3

     negative rho (up, down):  3.989E-05 0.000E+00

     total cpu time spent up to now is       17.9 secs

     total energy              =    -520.61180007 Ry
     estimated scf accuracy    <       0.01339026 Ry

     iteration #  6     ecut=    55.00 Ry     beta= 0.30
     Davidson diagonalization with overlap
     ethr =  1.94E-05,  avg # of iterations =  7.8

     negative rho (up, down):  1.685E-05 0.000E+00

     total cpu time spent up to now is       18.9 secs

     total energy              =    -520.61268763 Ry
     estimated scf accuracy    <       0.00091874 Ry

     iteration #  7     ecut=    55.00 Ry     beta= 0.30
     Davidson diagonalization with overlap
     ethr =  1.33E-06,  avg # of iterations =  6.7

     negative rho (up, down):  1.059E-05 0.000E+00

     total cpu time spent up to now is       21.1 secs

     total energy              =    -520.61275654 Ry
     estimated scf accuracy    <       0.00068354 Ry

     iteration #  8     ecut=    55.00 Ry     beta= 0.30
     Davidson diagonalization with overlap
     ethr =  9.91E-07,  avg # of iterations =  1.7

     negative rho (up, down):  1.004E-05 0.000E+00

     total cpu time spent up to now is       22.0 secs

     total energy              =    -520.61281673 Ry
     estimated scf accuracy    <       0.00028245 Ry

     iteration #  9     ecut=    55.00 Ry     beta= 0.30
     Davidson diagonalization with overlap
     ethr =  4.09E-07,  avg # of iterations =  1.2

     negative rho (up, down):  1.067E-05 0.000E+00

     total cpu time spent up to now is       22.5 secs

     total energy              =    -520.61283397 Ry
     estimated scf accuracy    <       0.00003816 Ry

     iteration # 10     ecut=    55.00 Ry     beta= 0.30
     Davidson diagonalization with overlap
     ethr =  5.53E-08,  avg # of iterations =  2.0

     negative rho (up, down):  1.027E-05 0.000E+00

     total cpu time spent up to now is       24.1 secs

     total energy              =    -520.61283701 Ry
     estimated scf accuracy    <       0.00000267 Ry

     iteration # 11     ecut=    55.00 Ry     beta= 0.30
     Davidson diagonalization with overlap
     ethr =  3.87E-09,  avg # of iterations =  4.7

     negative rho (up, down):  9.467E-06 0.000E+00

     total cpu time spent up to now is       24.6 secs

     End of self-consistent calculation

          k = 0.0000 0.0000 0.0000 ( 11951 PWs)   bands (ev):

   -43.5828  -4.1882  -3.5740  -2.9648  -2.8540  -2.8104  -2.7238  -2.6495
    -2.3618  -2.3480  -2.0013  -1.6900  -1.4858  -1.3746  -1.3596  -1.1586
    -1.1309  -1.0635  -0.7817  -0.7451  -0.6131  -0.4855  -0.4018  -0.3080
    -0.3052  -0.2815  -0.1412  -0.0517   0.0643   0.1502   0.1626   0.2446
     0.3401   0.4722   0.4758   1.2816   2.5485   3.7236   4.6462   6.6119
     7.2372   7.7544

          k = 0.0000 0.1250 0.0000 ( 11903 PWs)   bands (ev):

   -43.5810  -3.8828  -3.3101  -2.8235  -2.6824  -2.6688  -2.5401  -2.4737
    -2.2963  -2.1354  -1.8668  -1.6135  -1.5098  -1.3666  -1.3020  -1.2637
    -1.1337  -1.0762  -0.9620  -0.8508  -0.7091  -0.5514  -0.4557  -0.4168
    -0.3830  -0.3496  -0.2680  -0.1181  -0.0796   0.0377   0.1483   0.1992
     0.3449   0.4761   0.5400   1.7819   2.9828   4.1851   5.2772   6.8969
     7.5280   8.0244

          k = 0.0000 0.2500 0.0000 ( 11877 PWs)   bands (ev):

   -43.5771  -3.1389  -2.8827  -2.6368  -2.5752  -2.4605  -2.2415  -2.1462
    -1.9386  -1.6898  -1.5216  -1.4213  -1.2898  -1.2210  -1.2046  -1.1779
    -1.1624  -1.1320  -1.0436  -0.9650  -0.8679  -0.8198  -0.6771  -0.6187
    -0.5454  -0.4717  -0.2957  -0.1948  -0.1843   0.0378   0.1352   0.2147
     0.3723   0.3964   1.3191   2.6991   3.9525   5.3058   6.6549   7.7579
     8.4086   8.6190

          k = 0.0000 0.3750 0.0000 ( 11873 PWs)   bands (ev):

   -43.5731  -2.8633  -2.8231  -2.6208  -2.5204  -2.2445  -2.0979  -1.8704
    -1.6894  -1.5910  -1.4755  -1.4154  -1.3742  -1.3205  -1.3078  -1.1754
    -1.1412  -1.1135  -1.0830  -0.7854  -0.7612  -0.7291  -0.5544  -0.4284
    -0.2140  -0.1926   0.0026   0.0651   0.1449   0.3088   0.3380   0.6270
     0.7853   1.1583   2.3787   3.6576   4.9038   5.4772   6.1569   6.6731
     7.8097   8.0661

          k = 0.0000-0.5000 0.0000 ( 11796 PWs)   bands (ev):

   -43.5713  -2.9193  -2.8901  -2.6178  -2.5598  -2.0883  -2.0802  -1.7159
    -1.7135  -1.5334  -1.5093  -1.4948  -1.3998  -1.3913  -1.3821  -1.1873
    -1.1805  -1.1476  -1.0506  -0.9011  -0.7391  -0.4851  -0.3735  -0.3660
    -0.2186   0.0292   0.0971   0.1211   0.2302   0.2904   0.3124   2.7292
     2.7481   2.8273   2.8278   2.9038   3.1631   3.4678   6.1331   6.8042
     7.1494   7.7667

          k = 0.1250-0.0000 0.0000 ( 11903 PWs)   bands (ev):

   -43.5811  -3.8837  -3.3147  -2.8393  -2.6741  -2.6702  -2.6263  -2.4443
    -2.2904  -2.0959  -1.8466  -1.6090  -1.4825  -1.3656  -1.3172  -1.2625
    -1.1577  -1.0428  -0.9305  -0.8804  -0.7059  -0.5624  -0.4537  -0.4287
    -0.3778  -0.3489  -0.2548  -0.1308  -0.0812   0.0376   0.1425   0.1966
     0.3399   0.4749   0.5537   1.8187   2.9807   4.1716   5.2800   6.8833
     7.5243   8.0163

          k = 0.1250 0.1250 0.0000 ( 11887 PWs)   bands (ev):

   -43.5794  -3.5858  -3.0402  -2.6430  -2.5560  -2.4302  -2.4120  -2.3077
    -2.1462  -1.9853  -1.8713  -1.6814  -1.5038  -1.3936  -1.2828  -1.2361
    -1.1665  -1.1185  -1.0694  -0.8351  -0.7886  -0.7276  -0.6174  -0.5695
    -0.4478  -0.3542  -0.3283  -0.1939  -0.1556   0.0269   0.1000   0.1325
     0.2578   0.4665   1.0156   2.2198   3.3456   4.5988   5.8070   7.1703
     7.8166   8.2855

          k = 0.1250 0.2500 0.0000 ( 11878 PWs)   bands (ev):

   -43.5755  -2.8903  -2.6212  -2.3911  -2.3668  -2.2358  -2.1138  -2.0516
    -1.9202  -1.7626  -1.6006  -1.5459  -1.4314  -1.3836  -1.2768  -1.2116
    -1.1860  -1.1299  -1.0817  -1.0257  -0.9306  -0.8433  -0.7785  -0.5898
    -0.4507  -0.4280  -0.3763  -0.2421  -0.1992  -0.0509   0.0732   0.2166
     0.4064   0.7542   1.8098   3.0803   4.2778   5.6625   7.0386   8.0364
     8.6987   8.9245

          k = 0.1250 0.3750 0.0000 ( 11868 PWs)   bands (ev):

   -43.5716  -2.6684  -2.6380  -2.4600  -2.3758  -2.0725  -2.0202  -1.9863
    -1.8349  -1.6304  -1.5925  -1.5247  -1.3996  -1.3884  -1.3290  -1.2545
    -1.1158  -1.0831  -1.0434  -0.8888  -0.8442  -0.6870  -0.6380  -0.4750
    -0.3699  -0.1885  -0.0816   0.0653   0.1422   0.2391   0.2662   0.8547
     1.0905   1.8256   2.9163   4.1069   5.3442   5.8249   6.4096   6.9449
     7.9542   8.2703

          k = 0.1250-0.5000 0.0000 ( 11862 PWs)   bands (ev):

   -43.5700  -2.7430  -2.7163  -2.5133  -2.4421  -2.1489  -1.9893  -1.7884
    -1.7277  -1.6763  -1.6063  -1.5368  -1.5211  -1.4140  -1.4140  -1.2760
    -1.1590  -1.1311  -1.0537  -0.7852  -0.6536  -0.6422  -0.5885  -0.2934
    -0.1938  -0.1418  -0.0370   0.1429   0.2352   0.3060   0.3638   2.9901
     3.0122   3.2487   3.2573   3.6007   3.6209   4.0625   6.3470   6.9425
     7.2966   7.9337

          k = 0.1250-0.3750 0.0000 ( 11868 PWs)   bands (ev):

   -43.5716  -2.6684  -2.6380  -2.4600  -2.3758  -2.0725  -2.0202  -1.9863
    -1.8349  -1.6304  -1.5925  -1.5247  -1.3996  -1.3884  -1.3290  -1.2545
    -1.1158  -1.0831  -1.0434  -0.8888  -0.8442  -0.6870  -0.6380  -0.4750
    -0.3699  -0.1885  -0.0816   0.0653   0.1422   0.2391   0.2662   0.8547
     1.0905   1.8256   2.9163   4.1069   5.3442   5.8249   6.4096   6.9449
     7.9542   8.2702

          k = 0.1250-0.2500 0.0000 ( 11878 PWs)   bands (ev):

   -43.5755  -2.8903  -2.6212  -2.3911  -2.3668  -2.2358  -2.1138  -2.0516
    -1.9202  -1.7626  -1.6006  -1.5459  -1.4314  -1.3836  -1.2768  -1.2116
    -1.1860  -1.1299  -1.0817  -1.0257  -0.9306  -0.8433  -0.7785  -0.5898
    -0.4507  -0.4280  -0.3763  -0.2421  -0.1992  -0.0509   0.0732   0.2166
     0.4064   0.7542   1.8098   3.0803   4.2778   5.6625   7.0386   8.0364
     8.6987   8.9247

          k = 0.1250-0.1250 0.0000 ( 11887 PWs)   bands (ev):

   -43.5794  -3.5858  -3.0402  -2.6430  -2.5560  -2.4302  -2.4120  -2.3077
    -2.1462  -1.9853  -1.8713  -1.6814  -1.5038  -1.3936  -1.2828  -1.2361
    -1.1665  -1.1185  -1.0694  -0.8351  -0.7886  -0.7276  -0.6174  -0.5695
    -0.4478  -0.3542  -0.3283  -0.1939  -0.1556   0.0269   0.1000   0.1325
     0.2578   0.4665   1.0156   2.2198   3.3456   4.5988   5.8070   7.1703
     7.8166   8.2855

          k = 0.2500-0.0000 0.0000 ( 11877 PWs)   bands (ev):

   -43.5773  -3.1372  -2.8834  -2.6452  -2.6018  -2.5541  -2.2419  -2.1400
    -1.9298  -1.6662  -1.4768  -1.3963  -1.2587  -1.2216  -1.1952  -1.1831
    -1.1576  -1.0872  -1.0678  -0.9560  -0.8830  -0.8158  -0.6755  -0.6193
    -0.5598  -0.4631  -0.2947  -0.2031  -0.1937   0.0256   0.1527   0.2062
     0.3721   0.3955   1.3833   2.8103   3.9116   5.2889   6.7118   7.6300
     8.3126   8.5485

          k = 0.2500 0.1250 0.0000 ( 11878 PWs)   bands (ev):

   -43.5757  -2.8876  -2.6188  -2.3908  -2.3881  -2.3130  -2.1110  -2.0486
    -1.9152  -1.7543  -1.5970  -1.5156  -1.4254  -1.3399  -1.3126  -1.2077
    -1.1817  -1.1154  -1.0765  -1.0234  -0.9260  -0.8407  -0.7763  -0.5853
    -0.4491  -0.4301  -0.3807  -0.2452  -0.1982  -0.0616   0.0793   0.2139
     0.4047   0.7735   1.8551   3.1518   4.2428   5.6564   7.0848   7.9267
     8.6016   8.8179

          k = 0.2500 0.2500 0.0000 ( 11857 PWs)   bands (ev):

   -43.5718  -2.4796  -2.2269  -2.1639  -2.1294  -2.0221  -2.0014  -1.9435
    -1.8384  -1.8052  -1.7109  -1.7009  -1.6766  -1.5885  -1.4795  -1.2960
    -1.2485  -1.1708  -0.8911  -0.7771  -0.7575  -0.6459  -0.5644  -0.5262
    -0.4811  -0.4201  -0.3519  -0.2926  -0.2219   0.0066   0.1061   0.4526
     0.7045   1.6370   2.7802   3.9899   5.1515   6.6137   8.0589   8.7719
     9.1339   9.4382

          k = 0.2500 0.3750 0.0000 ( 11826 PWs)   bands (ev):

   -43.5678  -2.4557  -2.4197  -2.3685  -2.3064  -2.2454  -2.2169  -2.1622
    -2.0303  -1.9143  -1.7390  -1.7273  -1.5472  -1.2691  -1.2128  -1.1565
    -1.0425  -0.9749  -0.7593  -0.6945  -0.6291  -0.5629  -0.5494  -0.4068
    -0.3644  -0.1457  -0.0152   0.1539   0.1848   0.2143   0.3991   1.3171
     1.9919   2.9495   4.0302   5.1768   6.4249   6.6231   7.0960   7.6940
     8.3979   8.8362

          k = 0.2500-0.5000 0.0000 ( 11818 PWs)   bands (ev):

   -43.5662  -2.5075  -2.4983  -2.4794  -2.4765  -2.3556  -2.3055  -2.2390
    -2.1098  -1.9864  -1.8188  -1.7954  -1.5950  -1.1534  -1.0017  -0.9908
    -0.9260  -0.8359  -0.7777  -0.7421  -0.6049  -0.6016  -0.5712  -0.3210
    -0.1772   0.0400   0.1123   0.2886   0.3586   0.3684   0.4192   3.6072
     3.6886   4.0463   4.2541   4.7353   5.0762   5.5321   6.9466   7.3224
     7.7904   8.5399

          k = 0.2500-0.3750 0.0000 ( 11826 PWs)   bands (ev):

   -43.5678  -2.4557  -2.4197  -2.3685  -2.3064  -2.2454  -2.2169  -2.1622
    -2.0303  -1.9143  -1.7390  -1.7273  -1.5472  -1.2691  -1.2128  -1.1565
    -1.0425  -0.9749  -0.7593  -0.6945  -0.6291  -0.5629  -0.5494  -0.4068
    -0.3644  -0.1457  -0.0152   0.1539   0.1848   0.2143   0.3991   1.3171
     1.9919   2.9495   4.0302   5.1768   6.4249   6.6231   7.0960   7.6940
     8.3979   8.8362

          k = 0.2500-0.2500 0.0000 ( 11857 PWs)   bands (ev):

   -43.5718  -2.4796  -2.2269  -2.1639  -2.1294  -2.0221  -2.0014  -1.9435
    -1.8384  -1.8052  -1.7109  -1.7009  -1.6766  -1.5885  -1.4795  -1.2960
    -1.2485  -1.1708  -0.8911  -0.7771  -0.7575  -0.6459  -0.5644  -0.5262
    -0.4811  -0.4201  -0.3519  -0.2926  -0.2219   0.0066   0.1061   0.4526
     0.7045   1.6370   2.7802   3.9899   5.1515   6.6137   8.0589   8.7719
     9.1339   9.4382

          k = 0.2500-0.1250 0.0000 ( 11878 PWs)   bands (ev):

   -43.5757  -2.8876  -2.6188  -2.3908  -2.3881  -2.3130  -2.1110  -2.0486
    -1.9152  -1.7543  -1.5970  -1.5156  -1.4254  -1.3399  -1.3126  -1.2077
    -1.1817  -1.1154  -1.0765  -1.0234  -0.9260  -0.8407  -0.7763  -0.5853
    -0.4491  -0.4301  -0.3807  -0.2452  -0.1982  -0.0616   0.0793   0.2139
     0.4047   0.7735   1.8551   3.1518   4.2428   5.6564   7.0848   7.9267
     8.6015   8.8177

          k = 0.3750-0.0000 0.0000 ( 11873 PWs)   bands (ev):

   -43.5735  -2.8514  -2.8334  -2.6076  -2.5526  -2.3148  -2.0995  -1.8341
    -1.6764  -1.5996  -1.4319  -1.4188  -1.3708  -1.3305  -1.3095  -1.1657
    -1.1319  -1.1286  -1.0866  -0.7921  -0.7444  -0.7425  -0.5422  -0.4439
    -0.2458  -0.1780   0.0120   0.0545   0.1443   0.3070   0.3372   0.6456
     0.7875   1.1929   2.5130   3.9348   5.0066   5.5541   5.8878   6.6833
     7.2602   8.2009

          k = 0.3750 0.1250 0.0000 ( 11868 PWs)   bands (ev):

   -43.5719  -2.6543  -2.6462  -2.4389  -2.3990  -2.1023  -2.0160  -1.9732
    -1.8350  -1.6263  -1.5889  -1.5455  -1.3983  -1.3887  -1.3473  -1.2507
    -1.1215  -1.0836  -1.0488  -0.8885  -0.8401  -0.6848  -0.6570  -0.4558
    -0.3705  -0.1790  -0.0803   0.0566   0.1415   0.2385   0.2663   0.8669
     1.1096   1.8706   3.0463   4.3268   5.3882   5.8921   6.1802   6.9638
     7.4622   8.3806

          k = 0.3750 0.2500 0.0000 ( 11826 PWs)   bands (ev):

   -43.5680  -2.4482  -2.4255  -2.3670  -2.3042  -2.2514  -2.1991  -2.1269
    -2.0256  -1.9070  -1.7384  -1.7223  -1.5574  -1.3246  -1.2181  -1.1688
    -1.0963  -0.9900  -0.7438  -0.6924  -0.6303  -0.5522  -0.5419  -0.3929
    -0.3557  -0.1458  -0.0223   0.1543   0.1849   0.2116   0.3979   1.3328
     2.0181   2.9956   4.1273   5.2650   6.3303   6.6780   7.0039   7.7260
     8.0843   8.8664

          k = 0.3750 0.3750 0.0000 ( 11799 PWs)   bands (ev):

   -43.5642  -2.6960  -2.6625  -2.6209  -2.5824  -2.4025  -2.3463  -2.3385
    -2.3218  -2.0465  -1.9060  -1.8526  -1.8243  -1.3782  -1.2616  -0.8544
    -0.6795  -0.6451  -0.3499  -0.3052  -0.2504  -0.1771  -0.0470  -0.0343
     0.0680   0.1250   0.1690   0.1996   0.2085   0.3148   0.4771   2.5446
     3.3753   4.4020   5.4595   6.5153   6.7588   7.3958   7.5992   8.0737
     8.9502   9.3630

          k = 0.3750-0.5000 0.0000 ( 11750 PWs)   bands (ev):

   -43.5624  -2.8044  -2.7949  -2.7146  -2.7038  -2.5200  -2.4663  -2.4463
    -2.4016  -2.1994  -2.0149  -1.9524  -1.8516  -1.2676  -1.2082  -0.7578
    -0.5615  -0.5102  -0.3013  -0.2027  -0.0796   0.0014   0.0572   0.0744
     0.1228   0.2586   0.3486   0.3851   0.4238   0.4388   0.5818   4.5746
     4.6268   5.1826   5.4693   6.0422   6.6147   7.2258   7.4342   8.3070
     8.7639   9.7064

          k = 0.3750-0.3750 0.0000 ( 11799 PWs)   bands (ev):

   -43.5642  -2.6960  -2.6625  -2.6209  -2.5824  -2.4025  -2.3463  -2.3385
    -2.3218  -2.0465  -1.9060  -1.8526  -1.8243  -1.3782  -1.2616  -0.8544
    -0.6795  -0.6451  -0.3499  -0.3052  -0.2504  -0.1771  -0.0470  -0.0343
     0.0680   0.1250   0.1690   0.1996   0.2085   0.3148   0.4771   2.5446
     3.3753   4.4020   5.4595   6.5153   6.7588   7.3958   7.5992   8.0737
     8.9502   9.3630

          k = 0.3750-0.2500 0.0000 ( 11826 PWs)   bands (ev):

   -43.5680  -2.4482  -2.4255  -2.3670  -2.3042  -2.2514  -2.1991  -2.1269
    -2.0256  -1.9070  -1.7384  -1.7223  -1.5574  -1.3246  -1.2181  -1.1688
    -1.0963  -0.9900  -0.7438  -0.6924  -0.6303  -0.5522  -0.5419  -0.3929
    -0.3557  -0.1458  -0.0223   0.1543   0.1849   0.2116   0.3979   1.3328
     2.0181   2.9956   4.1273   5.2650   6.3303   6.6780   7.0039   7.7260
     8.0843   8.8664

          k = 0.3750-0.1250 0.0000 ( 11868 PWs)   bands (ev):

   -43.5719  -2.6543  -2.6462  -2.4389  -2.3990  -2.1023  -2.0160  -1.9732
    -1.8350  -1.6263  -1.5889  -1.5455  -1.3983  -1.3887  -1.3473  -1.2507
    -1.1215  -1.0836  -1.0488  -0.8885  -0.8401  -0.6848  -0.6570  -0.4558
    -0.3705  -0.1790  -0.0803   0.0566   0.1415   0.2385   0.2663   0.8669
     1.1096   1.8706   3.0463   4.3268   5.3882   5.8921   6.1802   6.9638
     7.4622   8.3806

          k =-0.5000 0.0000 0.0000 ( 11796 PWs)   bands (ev):

   -43.5718  -2.9049  -2.9017  -2.5925  -2.5922  -2.1598  -2.0521  -1.7096
    -1.6857  -1.5345  -1.5079  -1.4925  -1.3984  -1.3950  -1.3885  -1.1819
    -1.1672  -1.1492  -1.0381  -0.8948  -0.7554  -0.4632  -0.4310  -0.3650
    -0.2163   0.0154   0.0992   0.1332   0.2310   0.2862   0.3129   2.4480
     2.7458   2.8046   2.8325   2.8948   3.4671   4.8104   5.3551   6.1448
     7.0236   7.8031

          k =-0.5000 0.1250 0.0000 ( 11862 PWs)   bands (ev):

   -43.5704  -2.7277  -2.7260  -2.4839  -2.4604  -2.1123  -2.0031  -1.8020
    -1.7249  -1.6851  -1.6042  -1.5817  -1.5325  -1.4126  -1.3968  -1.2726
    -1.1574  -1.1247  -1.0739  -0.7853  -0.6756  -0.6472  -0.5833  -0.3069
    -0.1844  -0.1348  -0.0331   0.1479   0.2373   0.3023   0.3645   2.8423
     3.0293   3.1537   3.3567   3.5367   4.0454   5.0214   5.6117   6.3736
     7.2096   7.9739

          k =-0.5000 0.2500 0.0000 ( 11818 PWs)   bands (ev):

   -43.5665  -2.5118  -2.4915  -2.4783  -2.4755  -2.3260  -2.3077  -2.2016
    -2.1085  -1.9754  -1.8100  -1.7954  -1.5989  -1.2527  -1.0264  -0.9889
    -0.9569  -0.8352  -0.7956  -0.7392  -0.6037  -0.5975  -0.5563  -0.3156
    -0.1579   0.0365   0.1207   0.2806   0.3585   0.3685   0.4197   3.6272
     3.7053   4.1069   4.3231   4.8577   5.2657   5.8325   6.3234   7.1185
     7.6960   8.6103

          k =-0.5000 0.3750 0.0000 ( 11750 PWs)   bands (ev):

   -43.5625  -2.8027  -2.7946  -2.7148  -2.7056  -2.5104  -2.4658  -2.4279
    -2.4251  -2.1945  -1.9636  -1.9550  -1.8729  -1.3311  -1.1832  -0.7430
    -0.5541  -0.5329  -0.3000  -0.2019  -0.0777  -0.0327   0.0549   0.0851
     0.1330   0.2539   0.3507   0.3801   0.4243   0.4395   0.5820   4.6131
     4.6354   5.3928   5.3999   6.2781   6.2948   7.1961   7.3238   8.4815
     8.4993   9.8283

          k =-0.5000-0.5000 0.0000 ( 11668 PWs)   bands (ev):

   -43.5607  -2.9442  -2.9346  -2.8109  -2.7985  -2.6700  -2.6103  -2.5028
    -2.4750  -2.3768  -2.1010  -1.9604  -1.9168  -1.2444  -1.1987  -0.6719
    -0.4303  -0.3942  -0.2588  -0.1082   0.0293   0.2216   0.2649   0.2864
     0.3021   0.3966   0.5278   0.5585   0.5858   0.5988   0.8060   5.2603
     5.3118   6.3074   6.3806   6.5805   7.3056   7.8308   7.8410   9.3891
     9.5659   9.9793

     the Fermi energy is     3.2552 ev

!    total energy              =    -520.61283725 Ry
     estimated scf accuracy    <       0.00000094 Ry
     smearing contrib. (-TS)   =      -0.00039583 Ry
     internal energy E=F+TS    =    -520.61244142 Ry

     The total energy is F=E-TS. E is the sum of the following terms:
     one-electron contribution =   -6270.90514665 Ry
     hartree contribution      =    3185.31362212 Ry
     xc contribution           =    -137.60229738 Ry
     ewald contribution        =    2702.77024823 Ry
     DFT-D3 Dispersion         =      -0.18886775 Ry

     convergence has been achieved in  11 iterations

     negative rho (up, down):  9.467E-06 0.000E+00

     Forces acting on atoms (cartesian axes, Ry/au):

     atom    1 type  2   force =     0.00000063   -0.00000022    0.00065025
     atom    2 type  2   force =    -0.00000015   -0.00000259   -0.00061979
     atom    3 type  2   force =     0.00000150    0.00000005   -0.00176634
     atom    4 type  2   force =    -0.00000196   -0.00000073    0.00152323
     atom    5 type  2   force =    -0.00000057    0.00000418   -0.01291399
     atom    6 type  2   force =     0.00000065   -0.00000042   -0.00383769
     atom    7 type  1   force =    -0.00000008   -0.00000027    0.01696434
     The non-local contrib.  to forces
     atom    1 type  2   force =     0.00000147    0.00000085   -0.02680604
     atom    2 type  2   force =     0.00000006   -0.00000301   -0.09138262
     atom    3 type  2   force =     0.00000091   -0.00000122   -0.00007037
     atom    4 type  2   force =    -0.00000369   -0.00000218    0.00024234
     atom    5 type  2   force =    -0.00000135    0.00000606    0.04516385
     atom    6 type  2   force =     0.00000189    0.00000092    0.01494073
     atom    7 type  1   force =     0.00000037   -0.00000033    0.05455822
     The ionic contribution  to forces
     atom    1 type  2   force =     0.00000000    0.00000000  -94.61595636
     atom    2 type  2   force =    -0.00000000   -0.00000000 -150.71924080
     atom    3 type  2   force =     0.00000627    0.00002582   21.68568493
     atom    4 type  2   force =    -0.00000010   -0.00000041  -36.49362397
     atom    5 type  2   force =     0.00000914    0.00003067  136.36565135
     atom    6 type  2   force =    -0.00001535   -0.00005594   80.07889778
     atom    7 type  1   force =     0.00000004   -0.00000014   43.69858707
     The local contribution  to forces
     atom    1 type  2   force =    -0.00000018    0.00000180   94.63986125
     atom    2 type  2   force =     0.00000017    0.00000065  150.80115096
     atom    3 type  2   force =    -0.00000628   -0.00002587  -21.68917510
     atom    4 type  2   force =     0.00000146   -0.00000060   36.49392594
     atom    5 type  2   force =    -0.00001042   -0.00002892 -136.42375895
     atom    6 type  2   force =     0.00001650    0.00005579  -80.09647959
     atom    7 type  1   force =    -0.00000059    0.00000039  -43.73442146
     The core correction contribution to forces
     atom    1 type  2   force =    -0.00000005    0.00000018    0.00005612
     atom    2 type  2   force =     0.00000003    0.00000010    0.00622470
     atom    3 type  2   force =    -0.00000002   -0.00000015    0.00042543
     atom    4 type  2   force =     0.00000000    0.00000001   -0.00005426
     atom    5 type  2   force =    -0.00000003    0.00000002    0.00317240
     atom    6 type  2   force =     0.00000012    0.00000023   -0.00009844
     atom    7 type  1   force =     0.00000000    0.00000000    0.00000000
     The Hubbard contrib.    to forces
     atom    1 type  2   force =     0.00000000    0.00000000    0.00000000
     atom    2 type  2   force =     0.00000000    0.00000000    0.00000000
     atom    3 type  2   force =     0.00000000    0.00000000    0.00000000
     atom    4 type  2   force =     0.00000000    0.00000000    0.00000000
     atom    5 type  2   force =     0.00000000    0.00000000    0.00000000
     atom    6 type  2   force =     0.00000000    0.00000000    0.00000000
     atom    7 type  1   force =     0.00000000    0.00000000    0.00000000
     The SCF correction term to forces
     atom    1 type  2   force =    -0.00000073   -0.00000279   -0.00162263
     atom    2 type  2   force =    -0.00000052   -0.00000007   -0.00155572
     atom    3 type  2   force =     0.00000052    0.00000178    0.00161242
     atom    4 type  2   force =     0.00000025    0.00000271    0.00017631
     atom    5 type  2   force =     0.00000200   -0.00000332    0.00118039
     atom    6 type  2   force =    -0.00000266   -0.00000130    0.00238349
     atom    7 type  1   force =    -0.00000002    0.00000006    0.00060461

     DFT-D3 dispersion contribution to forces:
     atom    1 type  2   force =    -0.00000000   -0.00000000    0.00515420
     atom    2 type  2   force =    -0.00000000    0.00000000    0.00421996
     atom    3 type  2   force =    -0.00000001   -0.00000006   -0.00020737
     atom    4 type  2   force =     0.00000000    0.00000000    0.00089314
     atom    5 type  2   force =    -0.00000002   -0.00000008   -0.00428674
     atom    6 type  2   force =     0.00000004    0.00000013   -0.00344537
     atom    7 type  1   force =     0.00000000    0.00000000   -0.00232782

     Total force =     0.021807     Total SCF correction =     0.003889
     SCF correction compared to forces is large: reduce conv_thr to get better values


     Computing stress (Cartesian axis) and pressure


     negative rho (up, down):  9.467E-06 0.000E+00
          total   stress  (Ry/bohr**3)                   (kbar)     P=      -11.23
  -0.00014113  -0.00000000   0.00000000          -20.76       -0.00        0.00
  -0.00000000  -0.00007507  -0.00000000           -0.00      -11.04       -0.00
   0.00000000  -0.00000000  -0.00001285            0.00       -0.00       -1.89


     BFGS Geometry Optimization
     Energy error            =      0.0E+00 Ry
     Gradient error          =      1.7E-02 Ry/Bohr

     number of scf cycles    =   1
     number of bfgs steps    =   0

     energy             new  =    -520.6128372520 Ry

     new trust radius        =       0.0169643363 bohr
     new conv_thr            =       0.0000010000 Ry


ATOMIC_POSITIONS (angstrom)
Ag            2.1766639920        0.7255544377       12.0525222792
Ag            0.7255544733        2.1766622902        9.9996720192
Ag            2.1766644514        0.7255545805       16.1555998295
Ag            0.7255535136        2.1766632725       14.1051624171
Ag            2.1766617211        0.7255536807       20.2339912495
Ag            0.7255579082        2.1766759114       18.1856747986
Li            2.1766619824        2.1766604322       22.2498021779



     Writing config-only to output data dir ./Ag_mp-124_100_bridge_0/Ag_mp-124_100_bridge_0.save/
     NEW-OLD atomic charge density approx. for the potential

     negative rho (up, down):  1.000E-05 0.000E+00

     total cpu time spent up to now is       29.2 secs

     per-process dynamical memory:   188.1 Mb

     Self-consistent Calculation

     iteration #  1     ecut=    55.00 Ry     beta= 0.30
     Davidson diagonalization with overlap
     ethr =  1.00E-06,  avg # of iterations =  3.9

     negative rho (up, down):  9.866E-06 0.000E+00

     total cpu time spent up to now is       31.1 secs

     total energy              =    -520.61303508 Ry
     estimated scf accuracy    <       0.00053085 Ry

     iteration #  2     ecut=    55.00 Ry     beta= 0.30
     Davidson diagonalization with overlap
     ethr =  7.69E-07,  avg # of iterations =  8.7

     negative rho (up, down):  1.065E-05 0.000E+00

     total cpu time spent up to now is       32.0 secs

     total energy              =    -520.61163003 Ry
     estimated scf accuracy    <       0.07924672 Ry

     iteration #  3     ecut=    55.00 Ry     beta= 0.30
     Davidson diagonalization with overlap
     ethr =  7.69E-07,  avg # of iterations =  8.7

     negative rho (up, down):  1.176E-05 0.000E+00

     total cpu time spent up to now is       32.9 secs

     total energy              =    -520.61322622 Ry
     estimated scf accuracy    <       0.00136357 Ry

     iteration #  4     ecut=    55.00 Ry     beta= 0.30
     Davidson diagonalization with overlap
     ethr =  7.69E-07,  avg # of iterations =  1.5

     negative rho (up, down):  1.093E-05 0.000E+00

     total cpu time spent up to now is       33.6 secs

     total energy              =    -520.61328328 Ry
     estimated scf accuracy    <       0.00000457 Ry

     iteration #  5     ecut=    55.00 Ry     beta= 0.30
     Davidson diagonalization with overlap
     ethr =  6.62E-09,  avg # of iterations =  3.5

     negative rho (up, down):  9.684E-06 0.000E+00

     total cpu time spent up to now is       34.1 secs

     End of self-consistent calculation

          k = 0.0000 0.0000 0.0000 ( 11951 PWs)   bands (ev):

   -43.5968  -4.1951  -3.5781  -2.9702  -2.8593  -2.8150  -2.7232  -2.6522
    -2.3646  -2.3506  -2.0018  -1.6926  -1.4887  -1.3794  -1.3652  -1.1595
    -1.1335  -1.0584  -0.7821  -0.7469  -0.6168  -0.4880  -0.4062  -0.3082
    -0.3063  -0.2821  -0.1421  -0.0545   0.0629   0.1480   0.1603   0.2409
     0.3362   0.4694   0.4730   1.2772   2.5416   3.7127   4.6410   6.6120
     7.2378   7.7544

          k = 0.0000 0.1250 0.0000 ( 11903 PWs)   bands (ev):

   -43.5950  -3.8897  -3.3145  -2.8296  -2.6870  -2.6737  -2.5421  -2.4749
    -2.2996  -2.1362  -1.8677  -1.6163  -1.5119  -1.3701  -1.3077  -1.2654
    -1.1368  -1.0739  -0.9597  -0.8536  -0.7111  -0.5532  -0.4585  -0.4204
    -0.3849  -0.3495  -0.2701  -0.1197  -0.0798   0.0344   0.1453   0.1956
     0.3425   0.4731   0.5371   1.7779   2.9748   4.1757   5.2729   6.8967
     7.5285   8.0244

          k = 0.0000 0.2500 0.0000 ( 11877 PWs)   bands (ev):

   -43.5911  -3.1458  -2.8877  -2.6422  -2.5800  -2.4632  -2.2450  -2.1518
    -1.9403  -1.6895  -1.5203  -1.4220  -1.2869  -1.2227  -1.2111  -1.1829
    -1.1646  -1.1341  -1.0464  -0.9682  -0.8703  -0.8226  -0.6816  -0.6183
    -0.5482  -0.4720  -0.2958  -0.1980  -0.1860   0.0355   0.1331   0.2132
     0.3697   0.3932   1.3177   2.6943   3.9438   5.2987   6.6518   7.7571
     8.4088   8.6153

          k = 0.0000 0.3750 0.0000 ( 11873 PWs)   bands (ev):

   -43.5871  -2.8695  -2.8291  -2.6240  -2.5242  -2.2477  -2.1005  -1.8703
    -1.6894  -1.5933  -1.4733  -1.4181  -1.3772  -1.3265  -1.3141  -1.1789
    -1.1447  -1.1158  -1.0859  -0.7870  -0.7635  -0.7311  -0.5557  -0.4288
    -0.2136  -0.1955   0.0002   0.0641   0.1417   0.3067   0.3348   0.6257
     0.7817   1.1575   2.3774   3.6525   4.8985   5.4727   6.1530   6.6688
     7.8071   8.0615

          k = 0.0000-0.5000 0.0000 ( 11796 PWs)   bands (ev):

   -43.5853  -2.9252  -2.8962  -2.6201  -2.5637  -2.0907  -2.0817  -1.7135
    -1.7114  -1.5373  -1.5134  -1.4974  -1.4040  -1.3970  -1.3888  -1.1887
    -1.1816  -1.1515  -1.0539  -0.9018  -0.7429  -0.4853  -0.3769  -0.3633
    -0.2202   0.0275   0.0946   0.1189   0.2264   0.2880   0.3095   2.7263
     2.7464   2.8242   2.8257   2.9005   3.1648   3.4633   6.1287   6.7965
     7.1390   7.7670

          k = 0.1250-0.0000 0.0000 ( 11903 PWs)   bands (ev):

   -43.5951  -3.8905  -3.3189  -2.8441  -2.6784  -2.6750  -2.6268  -2.4472
    -2.2942  -2.0982  -1.8473  -1.6119  -1.4850  -1.3693  -1.3220  -1.2642
    -1.1593  -1.0441  -0.9274  -0.8820  -0.7079  -0.5638  -0.4565  -0.4322
    -0.3796  -0.3488  -0.2572  -0.1324  -0.0813   0.0344   0.1395   0.1929
     0.3374   0.4718   0.5503   1.8137   2.9723   4.1620   5.2754   6.8832
     7.5248   8.0160

          k = 0.1250 0.1250 0.0000 ( 11887 PWs)   bands (ev):

   -43.5934  -3.5927  -3.0447  -2.6486  -2.5616  -2.4343  -2.4136  -2.3089
    -2.1486  -1.9889  -1.8736  -1.6857  -1.5034  -1.3951  -1.2866  -1.2377
    -1.1714  -1.1199  -1.0677  -0.8343  -0.7897  -0.7290  -0.6224  -0.5725
    -0.4499  -0.3556  -0.3285  -0.1943  -0.1572   0.0232   0.0961   0.1304
     0.2548   0.4639   1.0131   2.2149   3.3369   4.5903   5.8027   7.1701
     7.8171   8.2856

          k = 0.1250 0.2500 0.0000 ( 11878 PWs)   bands (ev):

   -43.5895  -2.8971  -2.6261  -2.3976  -2.3703  -2.2396  -2.1192  -2.0547
    -1.9221  -1.7661  -1.6021  -1.5460  -1.4308  -1.3873  -1.2778  -1.2139
    -1.1873  -1.1323  -1.0846  -1.0285  -0.9306  -0.8458  -0.7816  -0.5904
    -0.4532  -0.4303  -0.3773  -0.2443  -0.2022  -0.0524   0.0708   0.2147
     0.4036   0.7528   1.8085   3.0746   4.2695   5.6558   7.0353   8.0359
     8.6991   8.9240

          k = 0.1250 0.3750 0.0000 ( 11868 PWs)   bands (ev):

   -43.5856  -2.6743  -2.6441  -2.4628  -2.3800  -2.0768  -2.0221  -1.9907
    -1.8365  -1.6323  -1.5942  -1.5276  -1.4039  -1.3907  -1.3299  -1.2570
    -1.1193  -1.0851  -1.0452  -0.8910  -0.8469  -0.6873  -0.6388  -0.4772
    -0.3697  -0.1910  -0.0853   0.0646   0.1392   0.2363   0.2630   0.8522
     1.0894   1.8253   2.9145   4.1015   5.3389   5.8206   6.4064   6.9406
     7.9506   8.2650

          k = 0.1250-0.5000 0.0000 ( 11862 PWs)   bands (ev):

   -43.5840  -2.7485  -2.7225  -2.5151  -2.4467  -2.1503  -1.9937  -1.7898
    -1.7326  -1.6791  -1.6091  -1.5393  -1.5221  -1.4164  -1.4162  -1.2789
    -1.1620  -1.1331  -1.0568  -0.7858  -0.6557  -0.6409  -0.5903  -0.2930
    -0.1966  -0.1438  -0.0409   0.1415   0.2319   0.3032   0.3605   2.9886
     3.0086   3.2492   3.2563   3.5982   3.6191   4.0578   6.3428   6.9345
     7.2872   7.9337

          k = 0.1250-0.3750 0.0000 ( 11868 PWs)   bands (ev):

   -43.5856  -2.6743  -2.6441  -2.4628  -2.3800  -2.0768  -2.0221  -1.9907
    -1.8365  -1.6323  -1.5942  -1.5276  -1.4039  -1.3907  -1.3299  -1.2570
    -1.1193  -1.0851  -1.0452  -0.8910  -0.8469  -0.6873  -0.6388  -0.4772
    -0.3697  -0.1910  -0.0853   0.0646   0.1392   0.2363   0.2630   0.8522
     1.0894   1.8253   2.9145   4.1015   5.3389   5.8206   6.4064   6.9406
     7.9506   8.2650

          k = 0.1250-0.2500 0.0000 ( 11878 PWs)   bands (ev):

   -43.5895  -2.8971  -2.6261  -2.3976  -2.3703  -2.2396  -2.1192  -2.0547
    -1.9221  -1.7661  -1.6021  -1.5460  -1.4308  -1.3873  -1.2778  -1.2139
    -1.1873  -1.1323  -1.0846  -1.0285  -0.9306  -0.8458  -0.7816  -0.5904
    -0.4532  -0.4303  -0.3773  -0.2443  -0.2022  -0.0524   0.0708   0.2147
     0.4036   0.7528   1.8085   3.0746   4.2695   5.6558   7.0353   8.0359
     8.6991   8.9240

          k = 0.1250-0.1250 0.0000 ( 11887 PWs)   bands (ev):

   -43.5934  -3.5927  -3.0447  -2.6486  -2.5616  -2.4343  -2.4136  -2.3089
    -2.1486  -1.9889  -1.8736  -1.6857  -1.5034  -1.3951  -1.2866  -1.2377
    -1.1714  -1.1199  -1.0677  -0.8343  -0.7897  -0.7290  -0.6224  -0.5725
    -0.4499  -0.3556  -0.3285  -0.1943  -0.1572   0.0232   0.0961   0.1304
     0.2548   0.4639   1.0131   2.2149   3.3369   4.5903   5.8027   7.1701
     7.8171   8.2855

          k = 0.2500-0.0000 0.0000 ( 11877 PWs)   bands (ev):

   -43.5913  -3.1442  -2.8883  -2.6483  -2.6048  -2.5565  -2.2453  -2.1459
    -1.9320  -1.6671  -1.4793  -1.3973  -1.2570  -1.2263  -1.1975  -1.1886
    -1.1593  -1.0885  -1.0693  -0.9584  -0.8848  -0.8185  -0.6800  -0.6191
    -0.5619  -0.4637  -0.2948  -0.2044  -0.1969   0.0233   0.1500   0.2045
     0.3695   0.3922   1.3802   2.8028   3.9018   5.2807   6.7067   7.6284
     8.3129   8.5468

          k = 0.2500 0.1250 0.0000 ( 11878 PWs)   bands (ev):

   -43.5897  -2.8945  -2.6238  -2.3955  -2.3919  -2.3145  -2.1166  -2.0520
    -1.9174  -1.7587  -1.5984  -1.5186  -1.4267  -1.3413  -1.3124  -1.2101
    -1.1833  -1.1183  -1.0792  -1.0252  -0.9264  -0.8431  -0.7794  -0.5858
    -0.4515  -0.4321  -0.3815  -0.2475  -0.2012  -0.0632   0.0767   0.2120
     0.4019   0.7716   1.8527   3.1444   4.2337   5.6488   7.0798   7.9254
     8.6019   8.8166

          k = 0.2500 0.2500 0.0000 ( 11857 PWs)   bands (ev):

   -43.5858  -2.4858  -2.2327  -2.1698  -2.1329  -2.0258  -2.0050  -1.9480
    -1.8409  -1.8104  -1.7153  -1.7071  -1.6790  -1.5889  -1.4787  -1.2949
    -1.2459  -1.1718  -0.8876  -0.7821  -0.7601  -0.6477  -0.5667  -0.5276
    -0.4849  -0.4228  -0.3558  -0.2929  -0.2254   0.0047   0.1043   0.4503
     0.7035   1.6364   2.7783   3.9824   5.1439   6.6075   8.0546   8.7718
     9.1311   9.4355

          k = 0.2500 0.3750 0.0000 ( 11826 PWs)   bands (ev):

   -43.5818  -2.4612  -2.4260  -2.3743  -2.3121  -2.2494  -2.2189  -2.1643
    -2.0341  -1.9163  -1.7415  -1.7293  -1.5514  -1.2716  -1.2141  -1.1607
    -1.0381  -0.9756  -0.7571  -0.6968  -0.6318  -0.5644  -0.5524  -0.4098
    -0.3670  -0.1494  -0.0149   0.1502   0.1821   0.2120   0.3963   1.3142
     1.9919   2.9497   4.0272   5.1710   6.4201   6.6185   7.0941   7.6896
     8.3914   8.8304

          k = 0.2500-0.5000 0.0000 ( 11818 PWs)   bands (ev):

   -43.5803  -2.5113  -2.5058  -2.4857  -2.4821  -2.3565  -2.3105  -2.2406
    -2.1142  -1.9877  -1.8197  -1.7987  -1.5996  -1.1520  -0.9972  -0.9946
    -0.9275  -0.8401  -0.7790  -0.7441  -0.6079  -0.6019  -0.5738  -0.3211
    -0.1799   0.0391   0.1090   0.2878   0.3551   0.3654   0.4154   3.6075
     3.6846   4.0470   4.2532   4.7311   5.0753   5.5270   6.9424   7.3144
     7.7825   8.5389

          k = 0.2500-0.3750 0.0000 ( 11826 PWs)   bands (ev):

   -43.5818  -2.4612  -2.4260  -2.3743  -2.3121  -2.2494  -2.2189  -2.1643
    -2.0341  -1.9163  -1.7415  -1.7293  -1.5514  -1.2716  -1.2141  -1.1607
    -1.0381  -0.9756  -0.7571  -0.6968  -0.6318  -0.5644  -0.5524  -0.4098
    -0.3670  -0.1494  -0.0149   0.1502   0.1821   0.2120   0.3963   1.3142
     1.9919   2.9497   4.0272   5.1710   6.4201   6.6185   7.0941   7.6896
     8.3914   8.8304

          k = 0.2500-0.2500 0.0000 ( 11857 PWs)   bands (ev):

   -43.5858  -2.4858  -2.2327  -2.1698  -2.1329  -2.0258  -2.0050  -1.9480
    -1.8409  -1.8104  -1.7153  -1.7071  -1.6790  -1.5889  -1.4787  -1.2949
    -1.2459  -1.1718  -0.8876  -0.7821  -0.7601  -0.6477  -0.5667  -0.5276
    -0.4849  -0.4228  -0.3558  -0.2929  -0.2254   0.0047   0.1043   0.4503
     0.7035   1.6364   2.7783   3.9824   5.1439   6.6075   8.0546   8.7718
     9.1311   9.4355

          k = 0.2500-0.1250 0.0000 ( 11878 PWs)   bands (ev):

   -43.5897  -2.8945  -2.6238  -2.3955  -2.3919  -2.3145  -2.1166  -2.0520
    -1.9174  -1.7587  -1.5984  -1.5186  -1.4267  -1.3413  -1.3124  -1.2101
    -1.1833  -1.1183  -1.0792  -1.0252  -0.9264  -0.8431  -0.7794  -0.5858
    -0.4515  -0.4321  -0.3815  -0.2475  -0.2012  -0.0632   0.0767   0.2120
     0.4019   0.7716   1.8527   3.1444   4.2337   5.6488   7.0798   7.9254
     8.6019   8.8166

          k = 0.3750-0.0000 0.0000 ( 11873 PWs)   bands (ev):

   -43.5875  -2.8579  -2.8392  -2.6112  -2.5548  -2.3156  -2.1026  -1.8349
    -1.6775  -1.6018  -1.4301  -1.4222  -1.3736  -1.3362  -1.3156  -1.1696
    -1.1353  -1.1303  -1.0890  -0.7939  -0.7451  -0.7448  -0.5441  -0.4435
    -0.2451  -0.1810   0.0095   0.0534   0.1410   0.3048   0.3341   0.6440
     0.7838   1.1913   2.5097   3.9252   4.9954   5.5472   5.8845   6.6788
     7.2509   8.1951

          k = 0.3750 0.1250 0.0000 ( 11868 PWs)   bands (ev):

   -43.5859  -2.6606  -2.6521  -2.4426  -2.4021  -2.1046  -2.0190  -1.9771
    -1.8367  -1.6272  -1.5907  -1.5487  -1.4026  -1.3913  -1.3475  -1.2531
    -1.1247  -1.0850  -1.0509  -0.8902  -0.8428  -0.6850  -0.6574  -0.4587
    -0.3704  -0.1812  -0.0840   0.0560   0.1383   0.2356   0.2630   0.8640
     1.1081   1.8693   3.0431   4.3169   5.3784   5.8862   6.1781   6.9590
     7.4535   8.3751

          k = 0.3750 0.2500 0.0000 ( 11826 PWs)   bands (ev):

   -43.5820  -2.4543  -2.4315  -2.3728  -2.3101  -2.2552  -2.2019  -2.1294
    -2.0293  -1.9089  -1.7409  -1.7246  -1.5608  -1.3227  -1.2206  -1.1709
    -1.0926  -0.9901  -0.7447  -0.6944  -0.6330  -0.5546  -0.5437  -0.3957
    -0.3582  -0.1495  -0.0215   0.1505   0.1822   0.2092   0.3952   1.3294
     2.0173   2.9950   4.1236   5.2558   6.3257   6.6716   7.0031   7.7216
     8.0749   8.8622

          k = 0.3750 0.3750 0.0000 ( 11799 PWs)   bands (ev):

   -43.5782  -2.7018  -2.6688  -2.6270  -2.5880  -2.4048  -2.3501  -2.3410
    -2.3249  -2.0472  -1.9083  -1.8561  -1.8287  -1.3787  -1.2630  -0.8507
    -0.6795  -0.6442  -0.3475  -0.3076  -0.2534  -0.1802  -0.0506  -0.0374
     0.0649   0.1264   0.1659   0.1968   0.2038   0.3120   0.4740   2.5408
     3.3754   4.4018   5.4548   6.5110   6.7522   7.3931   7.5958   8.0682
     8.9483   9.3569

          k = 0.3750-0.5000 0.0000 ( 11750 PWs)   bands (ev):

   -43.5764  -2.8096  -2.8019  -2.7201  -2.7102  -2.5214  -2.4712  -2.4477
    -2.4060  -2.1997  -2.0165  -1.9570  -1.8555  -1.2677  -1.2097  -0.7494
    -0.5632  -0.5105  -0.3040  -0.2053  -0.0831   0.0024   0.0551   0.0718
     0.1197   0.2589   0.3448   0.3844   0.4195   0.4355   0.5772   4.5729
     4.6223   5.1845   5.4682   6.0381   6.6127   7.2198   7.4265   8.3053
     8.7592   9.7051

          k = 0.3750-0.3750 0.0000 ( 11799 PWs)   bands (ev):

   -43.5782  -2.7018  -2.6688  -2.6270  -2.5880  -2.4048  -2.3501  -2.3410
    -2.3249  -2.0472  -1.9083  -1.8561  -1.8287  -1.3787  -1.2630  -0.8507
    -0.6795  -0.6442  -0.3475  -0.3076  -0.2534  -0.1802  -0.0506  -0.0374
     0.0649   0.1264   0.1659   0.1968   0.2038   0.3120   0.4740   2.5408
     3.3754   4.4018   5.4548   6.5110   6.7522   7.3931   7.5958   8.0682
     8.9482   9.3569

          k = 0.3750-0.2500 0.0000 ( 11826 PWs)   bands (ev):

   -43.5820  -2.4543  -2.4315  -2.3728  -2.3101  -2.2552  -2.2019  -2.1294
    -2.0293  -1.9089  -1.7409  -1.7246  -1.5608  -1.3227  -1.2206  -1.1709
    -1.0926  -0.9901  -0.7447  -0.6944  -0.6330  -0.5546  -0.5437  -0.3957
    -0.3582  -0.1495  -0.0215   0.1505   0.1822   0.2092   0.3952   1.3294
     2.0173   2.9950   4.1236   5.2558   6.3257   6.6716   7.0031   7.7216
     8.0752   8.8622

          k = 0.3750-0.1250 0.0000 ( 11868 PWs)   bands (ev):

   -43.5859  -2.6606  -2.6521  -2.4426  -2.4021  -2.1046  -2.0190  -1.9771
    -1.8367  -1.6272  -1.5907  -1.5487  -1.4026  -1.3913  -1.3475  -1.2531
    -1.1247  -1.0850  -1.0509  -0.8902  -0.8428  -0.6850  -0.6574  -0.4587
    -0.3704  -0.1812  -0.0840   0.0560   0.1383   0.2356   0.2630   0.8640
     1.1081   1.8693   3.0431   4.3169   5.3784   5.8862   6.1781   6.9590
     7.4532   8.3750

          k =-0.5000 0.0000 0.0000 ( 11796 PWs)   bands (ev):

   -43.5858  -2.9112  -2.9075  -2.5957  -2.5945  -2.1590  -2.0545  -1.7066
    -1.6855  -1.5386  -1.5121  -1.4953  -1.4026  -1.4012  -1.3944  -1.1836
    -1.1699  -1.1518  -1.0410  -0.8956  -0.7580  -0.4643  -0.4262  -0.3680
    -0.2180   0.0134   0.0967   0.1307   0.2273   0.2837   0.3101   2.4535
     2.7415   2.7998   2.8292   2.8910   3.4627   4.8026   5.3293   6.1401
     7.0162   7.7983

          k =-0.5000 0.1250 0.0000 ( 11862 PWs)   bands (ev):

   -43.5844  -2.7337  -2.7321  -2.4867  -2.4642  -2.1142  -2.0066  -1.8014
    -1.7299  -1.6874  -1.6071  -1.5826  -1.5352  -1.4151  -1.3993  -1.2754
    -1.1603  -1.1265  -1.0761  -0.7857  -0.6737  -0.6491  -0.5853  -0.3071
    -0.1869  -0.1369  -0.0370   0.1463   0.2340   0.2994   0.3611   2.8447
     3.0251   3.1515   3.3541   3.5334   4.0409   5.0159   5.5881   6.3686
     7.2026   7.9683

          k =-0.5000 0.2500 0.0000 ( 11818 PWs)   bands (ev):

   -43.5805  -2.5189  -2.4960  -2.4847  -2.4811  -2.3284  -2.3126  -2.2033
    -2.1131  -1.9766  -1.8113  -1.7987  -1.6034  -1.2460  -1.0217  -0.9927
    -0.9582  -0.8394  -0.7977  -0.7413  -0.6046  -0.6015  -0.5578  -0.3161
    -0.1605   0.0359   0.1174   0.2799   0.3550   0.3655   0.4159   3.6253
     3.7012   4.1069   4.3212   4.8543   5.2629   5.8299   6.3070   7.1125
     7.6904   8.6034

          k =-0.5000 0.3750 0.0000 ( 11750 PWs)   bands (ev):

   -43.5765  -2.8080  -2.8017  -2.7209  -2.7113  -2.5119  -2.4708  -2.4303
    -2.4285  -2.1950  -1.9665  -1.9594  -1.8759  -1.3298  -1.1849  -0.7357
    -0.5533  -0.5349  -0.3026  -0.2045  -0.0813  -0.0306   0.0523   0.0822
     0.1302   0.2543   0.3469   0.3793   0.4200   0.4362   0.5774   4.6089
     4.6315   5.3927   5.3995   6.2728   6.2943   7.1926   7.3143   8.4771
     8.4967   9.8222

          k =-0.5000-0.5000 0.0000 ( 11668 PWs)   bands (ev):

   -43.5747  -2.9493  -2.9417  -2.8169  -2.8047  -2.6706  -2.6155  -2.5055
    -2.4789  -2.3766  -2.1055  -1.9624  -1.9202  -1.2444  -1.1994  -0.6621
    -0.4314  -0.3954  -0.2615  -0.1107   0.0262   0.2184   0.2619   0.2845
     0.3003   0.4037   0.5264   0.5530   0.5797   0.5958   0.8010   5.2553
     5.3066   6.3061   6.3793   6.5821   7.2969   7.8301   7.8414   9.3879
     9.5667   9.9765

     the Fermi energy is     3.2519 ev

!    total energy              =    -520.61328400 Ry
     estimated scf accuracy    <       0.00000079 Ry
     smearing contrib. (-TS)   =      -0.00038017 Ry
     internal energy E=F+TS    =    -520.61290384 Ry

     The total energy is F=E-TS. E is the sum of the following terms:
     one-electron contribution =   -6273.60448510 Ry
     hartree contribution      =    3186.62025479 Ry
     xc contribution           =    -137.60021306 Ry
     ewald contribution        =    2704.16043869 Ry
     DFT-D3 Dispersion         =      -0.18889916 Ry

     convergence has been achieved in   5 iterations

     negative rho (up, down):  9.684E-06 0.000E+00

     Forces acting on atoms (cartesian axes, Ry/au):

     atom    1 type  2   force =    -0.00000134    0.00000008    0.00092915
     atom    2 type  2   force =    -0.00000216   -0.00000381    0.00019140
     atom    3 type  2   force =     0.00000076    0.00000244   -0.00206462
     atom    4 type  2   force =    -0.00000063    0.00000006    0.00077327
     atom    5 type  2   force =     0.00000466    0.00000043   -0.01060922
     atom    6 type  2   force =    -0.00000075    0.00000174   -0.00414787
     atom    7 type  1   force =    -0.00000054   -0.00000094    0.01492789
     The non-local contrib.  to forces
     atom    1 type  2   force =    -0.00000184    0.00000104   -0.02658615
     atom    2 type  2   force =    -0.00000106   -0.00000364   -0.09084807
     atom    3 type  2   force =     0.00000124    0.00000392   -0.00022745
     atom    4 type  2   force =    -0.00000006    0.00000256   -0.00022721
     atom    5 type  2   force =     0.00000581    0.00000207    0.04393744
     atom    6 type  2   force =     0.00000021    0.00000291    0.01440863
     atom    7 type  1   force =     0.00000022    0.00000004    0.05351561
     The ionic contribution  to forces
     atom    1 type  2   force =    -0.00000354   -0.00000302  -94.64422806
     atom    2 type  2   force =     0.00000085    0.00000245 -150.73677042
     atom    3 type  2   force =     0.00000176    0.00002446   21.68076655
     atom    4 type  2   force =     0.00000618    0.00000098  -36.52384344
     atom    5 type  2   force =     0.00001032    0.00002403  136.46329142
     atom    6 type  2   force =    -0.00001577   -0.00005090   80.11438433
     atom    7 type  1   force =     0.00000020    0.00000200   43.64639962
     The local contribution  to forces
     atom    1 type  2   force =     0.00000578    0.00000296   94.66621564
     atom    2 type  2   force =    -0.00000092   -0.00000204  150.81537629
     atom    3 type  2   force =    -0.00000089   -0.00002466  -21.68289966
     atom    4 type  2   force =    -0.00000723   -0.00000229   36.52621939
     atom    5 type  2   force =    -0.00001037   -0.00002124 -136.51729611
     atom    6 type  2   force =     0.00001549    0.00004957  -80.13102205
     atom    7 type  1   force =     0.00000022   -0.00000254  -43.68187673
     The core correction contribution to forces
     atom    1 type  2   force =     0.00000010   -0.00000001    0.00006512
     atom    2 type  2   force =     0.00000002    0.00000001    0.00618989
     atom    3 type  2   force =     0.00000004   -0.00000016    0.00041707
     atom    4 type  2   force =    -0.00000004   -0.00000008    0.00000339
     atom    5 type  2   force =    -0.00000005    0.00000005    0.00277086
     atom    6 type  2   force =     0.00000009    0.00000017   -0.00005502
     atom    7 type  1   force =     0.00000000    0.00000000    0.00000000
     The Hubbard contrib.    to forces
     atom    1 type  2   force =     0.00000000    0.00000000    0.00000000
     atom    2 type  2   force =     0.00000000    0.00000000    0.00000000
     atom    3 type  2   force =     0.00000000    0.00000000    0.00000000
     atom    4 type  2   force =     0.00000000    0.00000000    0.00000000
     atom    5 type  2   force =     0.00000000    0.00000000    0.00000000
     atom    6 type  2   force =     0.00000000    0.00000000    0.00000000
     atom    7 type  1   force =     0.00000000    0.00000000    0.00000000
     The SCF correction term to forces
     atom    1 type  2   force =    -0.00000104    0.00000023    0.00034914
     atom    2 type  2   force =    -0.00000024    0.00000052    0.00207404
     atom    3 type  2   force =    -0.00000060    0.00000006    0.00013527
     atom    4 type  2   force =     0.00000133    0.00000001   -0.00224715
     atom    5 type  2   force =    -0.00000023   -0.00000331    0.00102648
     atom    6 type  2   force =    -0.00000002    0.00000099    0.00161799
     atom    7 type  1   force =    -0.00000038    0.00000068   -0.00071532

     DFT-D3 dispersion contribution to forces:
     atom    1 type  2   force =     0.00000001    0.00000001    0.00515935
     atom    2 type  2   force =    -0.00000000   -0.00000001    0.00421558
     atom    3 type  2   force =    -0.00000000   -0.00000006   -0.00021050
     atom    4 type  2   force =    -0.00000002   -0.00000000    0.00091420
     atom    5 type  2   force =    -0.00000002   -0.00000006   -0.00429340
     atom    6 type  2   force =     0.00000004    0.00000012   -0.00343585
     atom    7 type  1   force =    -0.00000000    0.00000000   -0.00234939

     Total force =     0.018930     Total SCF correction =     0.003698
     SCF correction compared to forces is large: reduce conv_thr to get better values


     Computing stress (Cartesian axis) and pressure


     negative rho (up, down):  9.684E-06 0.000E+00
          total   stress  (Ry/bohr**3)                   (kbar)     P=      -13.00
  -0.00015092   0.00000000   0.00000000          -22.20        0.00        0.00
   0.00000000  -0.00008749   0.00000000            0.00      -12.87        0.00
   0.00000000   0.00000000  -0.00002662            0.00        0.00       -3.92

     Energy error            =      4.5E-04 Ry
     Gradient error          =      1.5E-02 Ry/Bohr

     number of scf cycles    =   2
     number of bfgs steps    =   1

     energy             old  =    -520.6128372520 Ry
     energy             new  =    -520.6132840016 Ry

     CASE: energy            _new < energy            _old


     WARNING: bfgs curvature condition failed, Theta= 0.925
     new trust radius        =       0.0186607699 bohr
     new conv_thr            =       0.0000000447 Ry


ATOMIC_POSITIONS (angstrom)
Ag            2.1766632608        0.7255544713       12.0531079307
Ag            0.7255532097        2.1766598927        9.9997387973
Ag            2.1766650011        0.7255560010       16.1542755132
Ag            0.7255530048        2.1766632527       14.1057199913
Ag            2.1766643840        0.7255542266       20.2269119403
Ag            0.7255575175        2.1766768917       18.1829935661
Li            2.1766616641        2.1766598691       22.2596770320



     Writing config-only to output data dir ./Ag_mp-124_100_bridge_0/Ag_mp-124_100_bridge_0.save/
     NEW-OLD atomic charge density approx. for the potential

     negative rho (up, down):  1.021E-05 0.000E+00

     total cpu time spent up to now is       36.5 secs

     per-process dynamical memory:   188.8 Mb

     Self-consistent Calculation

     iteration #  1     ecut=    55.00 Ry     beta= 0.30
     Davidson diagonalization with overlap
     ethr =  1.00E-06,  avg # of iterations =  4.2

     Threshold (ethr) on eigenvalues was too large:
     Diagonalizing with lowered threshold

     Davidson diagonalization with overlap
     ethr =  5.16E-08,  avg # of iterations =  3.0

     negative rho (up, down):  1.008E-05 0.000E+00

     total cpu time spent up to now is       37.7 secs

     total energy              =    -520.61369384 Ry
     estimated scf accuracy    <       0.00004171 Ry

     iteration #  2     ecut=    55.00 Ry     beta= 0.30
     Davidson diagonalization with overlap
     ethr =  6.04E-08,  avg # of iterations =  2.2

     negative rho (up, down):  1.090E-05 0.000E+00

     total cpu time spent up to now is       38.1 secs

     total energy              =    -520.61361722 Ry
     estimated scf accuracy    <       0.00427724 Ry

     iteration #  3     ecut=    55.00 Ry     beta= 0.30
     Davidson diagonalization with overlap
     ethr =  6.04E-08,  avg # of iterations =  1.7

     negative rho (up, down):  1.108E-05 0.000E+00

     total cpu time spent up to now is       38.5 secs

     total energy              =    -520.61370576 Ry
     estimated scf accuracy    <       0.00002566 Ry

     iteration #  4     ecut=    55.00 Ry     beta= 0.30
     Davidson diagonalization with overlap
     ethr =  3.72E-08,  avg # of iterations =  1.1

     negative rho (up, down):  1.129E-05 0.000E+00

     total cpu time spent up to now is       39.0 secs

     total energy              =    -520.61370558 Ry
     estimated scf accuracy    <       0.00005053 Ry

     iteration #  5     ecut=    55.00 Ry     beta= 0.30
     Davidson diagonalization with overlap
     ethr =  3.72E-08,  avg # of iterations =  1.1

     negative rho (up, down):  1.064E-05 0.000E+00

     total cpu time spent up to now is       39.5 secs

     total energy              =    -520.61370839 Ry
     estimated scf accuracy    <       0.00000301 Ry

     iteration #  6     ecut=    55.00 Ry     beta= 0.30
     Davidson diagonalization with overlap
     ethr =  4.36E-09,  avg # of iterations =  1.3

     negative rho (up, down):  1.043E-05 0.000E+00

     total cpu time spent up to now is       40.1 secs

     total energy              =    -520.61370861 Ry
     estimated scf accuracy    <       0.00000032 Ry

     iteration #  7     ecut=    55.00 Ry     beta= 0.30
     Davidson diagonalization with overlap
     ethr =  4.66E-10,  avg # of iterations =  2.7

     negative rho (up, down):  9.924E-06 0.000E+00

     total cpu time spent up to now is       40.7 secs

     total energy              =    -520.61370867 Ry
     estimated scf accuracy    <       0.00000014 Ry

     iteration #  8     ecut=    55.00 Ry     beta= 0.30
     Davidson diagonalization with overlap
     ethr =  2.08E-10,  avg # of iterations =  2.0

     negative rho (up, down):  9.866E-06 0.000E+00

     total cpu time spent up to now is       41.1 secs

     End of self-consistent calculation

          k = 0.0000 0.0000 0.0000 ( 11951 PWs)   bands (ev):

   -43.6071  -4.2006  -3.5813  -2.9747  -2.8635  -2.8186  -2.7222  -2.6547
    -2.3654  -2.3515  -2.0012  -1.6931  -1.4899  -1.3830  -1.3697  -1.1604
    -1.1358  -1.0528  -0.7811  -0.7474  -0.6181  -0.4889  -0.4099  -0.3080
    -0.3072  -0.2816  -0.1422  -0.0552   0.0622   0.1478   0.1600   0.2399
     0.3344   0.4681   0.4718   1.2751   2.5379   3.7042   4.6384   6.6155
     7.2419   7.7593

          k = 0.0000 0.1250 0.0000 ( 11903 PWs)   bands (ev):

   -43.6054  -3.8952  -3.3180  -2.8345  -2.6908  -2.6779  -2.5430  -2.4761
    -2.3009  -2.1356  -1.8675  -1.6172  -1.5130  -1.3721  -1.3124  -1.2663
    -1.1397  -1.0710  -0.9559  -0.8554  -0.7112  -0.5548  -0.4597  -0.4225
    -0.3852  -0.3496  -0.2703  -0.1202  -0.0793   0.0332   0.1445   0.1944
     0.3417   0.4716   0.5361   1.7762   2.9699   4.1686   5.2710   6.9001
     7.5327   8.0289

          k = 0.0000 0.2500 0.0000 ( 11877 PWs)   bands (ev):

   -43.6014  -3.1513  -2.8919  -2.6465  -2.5841  -2.4656  -2.2464  -2.1560
    -1.9417  -1.6883  -1.5182  -1.4219  -1.2831  -1.2227  -1.2163  -1.1874
    -1.1663  -1.1341  -1.0491  -0.9694  -0.8726  -0.8237  -0.6827  -0.6178
    -0.5494  -0.4708  -0.2955  -0.1998  -0.1857   0.0353   0.1328   0.2134
     0.3689   0.3914   1.3184   2.6920   3.9380   5.2939   6.6511   7.7600
     8.4128   8.6145

          k = 0.0000 0.3750 0.0000 ( 11873 PWs)   bands (ev):

   -43.5975  -2.8744  -2.8341  -2.6269  -2.5275  -2.2501  -2.1015  -1.8692
    -1.6887  -1.5940  -1.4701  -1.4198  -1.3784  -1.3316  -1.3195  -1.1804
    -1.1467  -1.1184  -1.0886  -0.7876  -0.7645  -0.7318  -0.5555  -0.4278
    -0.2121  -0.1971  -0.0005   0.0647   0.1407   0.3058   0.3335   0.6257
     0.7793   1.1588   2.3785   3.6500   4.8950   5.4696   6.1519   6.6672
     7.8057   8.0589

          k = 0.0000-0.5000 0.0000 ( 11796 PWs)   bands (ev):

   -43.5957  -2.9298  -2.9012  -2.6222  -2.5670  -2.0922  -2.0815  -1.7125
    -1.7065  -1.5396  -1.5157  -1.4986  -1.4061  -1.4019  -1.3946  -1.1906
    -1.1810  -1.1550  -1.0559  -0.9017  -0.7445  -0.4845  -0.3783  -0.3598
    -0.2209   0.0273   0.0943   0.1181   0.2242   0.2871   0.3083   2.7253
     2.7456   2.8219   2.8248   2.8988   3.1692   3.4618   6.1274   6.7925
     7.1298   7.7693

          k = 0.1250-0.0000 0.0000 ( 11903 PWs)   bands (ev):

   -43.6055  -3.8960  -3.3221  -2.8480  -2.6824  -2.6789  -2.6262  -2.4498
    -2.2957  -2.0990  -1.8471  -1.6129  -1.4863  -1.3714  -1.3257  -1.2650
    -1.1610  -1.0442  -0.9234  -0.8826  -0.7080  -0.5649  -0.4578  -0.4342
    -0.3799  -0.3489  -0.2575  -0.1329  -0.0807   0.0332   0.1388   0.1918
     0.3365   0.4704   0.5487   1.8109   2.9670   4.1547   5.2732   6.8866
     7.5291   8.0207

          k = 0.1250 0.1250 0.0000 ( 11887 PWs)   bands (ev):

   -43.6038  -3.5982  -3.0481  -2.6531  -2.5662  -2.4379  -2.4154  -2.3088
    -2.1500  -1.9901  -1.8747  -1.6888  -1.5021  -1.3955  -1.2886  -1.2386
    -1.1754  -1.1203  -1.0657  -0.8324  -0.7895  -0.7289  -0.6256  -0.5743
    -0.4505  -0.3560  -0.3275  -0.1940  -0.1577   0.0219   0.0944   0.1303
     0.2537   0.4628   1.0124   2.2123   3.3313   4.5840   5.8008   7.1734
     7.8213   8.2898

          k = 0.1250 0.2500 0.0000 ( 11878 PWs)   bands (ev):

   -43.5999  -2.9025  -2.6301  -2.4023  -2.3739  -2.2429  -2.1235  -2.0563
    -1.9236  -1.7684  -1.6024  -1.5459  -1.4296  -1.3896  -1.2782  -1.2156
    -1.1873  -1.1336  -1.0859  -1.0294  -0.9296  -0.8469  -0.7824  -0.5897
    -0.4538  -0.4317  -0.3769  -0.2445  -0.2034  -0.0522   0.0697   0.2146
     0.4022   0.7533   1.8091   3.0716   4.2638   5.6513   7.0343   8.0389
     8.7032   8.9235

          k = 0.1250 0.3750 0.0000 ( 11868 PWs)   bands (ev):

   -43.5960  -2.6788  -2.6492  -2.4651  -2.3836  -2.0799  -2.0229  -1.9938
    -1.8378  -1.6330  -1.5953  -1.5297  -1.4074  -1.3919  -1.3292  -1.2585
    -1.1205  -1.0859  -1.0458  -0.8925  -0.8479  -0.6868  -0.6383  -0.4777
    -0.3679  -0.1917  -0.0867   0.0651   0.1379   0.2351   0.2610   0.8511
     1.0894   1.8270   2.9151   4.0986   5.3356   5.8178   6.4057   6.9388
     7.9487   8.2619

          k = 0.1250-0.5000 0.0000 ( 11862 PWs)   bands (ev):

   -43.5944  -2.7527  -2.7278  -2.5166  -2.4506  -2.1505  -1.9965  -1.7904
    -1.7366  -1.6817  -1.6119  -1.5416  -1.5226  -1.4170  -1.4165  -1.2802
    -1.1634  -1.1330  -1.0583  -0.7852  -0.6567  -0.6383  -0.5915  -0.2912
    -0.1973  -0.1447  -0.0423   0.1414   0.2302   0.3018   0.3585   2.9886
     3.0064   3.2508   3.2561   3.5983   3.6191   4.0561   6.3415   6.9301
     7.2791   7.9357

          k = 0.1250-0.3750 0.0000 ( 11868 PWs)   bands (ev):

   -43.5960  -2.6788  -2.6492  -2.4651  -2.3836  -2.0799  -2.0229  -1.9938
    -1.8378  -1.6330  -1.5953  -1.5297  -1.4074  -1.3919  -1.3292  -1.2585
    -1.1205  -1.0859  -1.0458  -0.8925  -0.8479  -0.6868  -0.6383  -0.4777
    -0.3679  -0.1917  -0.0867   0.0651   0.1379   0.2351   0.2610   0.8511
     1.0894   1.8270   2.9151   4.0986   5.3356   5.8178   6.4057   6.9388
     7.9487   8.2619

          k = 0.1250-0.2500 0.0000 ( 11878 PWs)   bands (ev):

   -43.5999  -2.9025  -2.6301  -2.4023  -2.3739  -2.2429  -2.1235  -2.0563
    -1.9236  -1.7684  -1.6024  -1.5459  -1.4296  -1.3896  -1.2782  -1.2156
    -1.1873  -1.1336  -1.0859  -1.0294  -0.9296  -0.8469  -0.7824  -0.5897
    -0.4538  -0.4317  -0.3769  -0.2445  -0.2034  -0.0522   0.0697   0.2146
     0.4022   0.7533   1.8091   3.0716   4.2638   5.6513   7.0343   8.0389
     8.7032   8.9236

          k = 0.1250-0.1250 0.0000 ( 11887 PWs)   bands (ev):

   -43.6038  -3.5982  -3.0481  -2.6531  -2.5662  -2.4379  -2.4154  -2.3088
    -2.1500  -1.9901  -1.8747  -1.6888  -1.5021  -1.3955  -1.2886  -1.2386
    -1.1754  -1.1203  -1.0657  -0.8324  -0.7895  -0.7289  -0.6256  -0.5743
    -0.4505  -0.3560  -0.3275  -0.1940  -0.1577   0.0219   0.0944   0.1303
     0.2537   0.4628   1.0124   2.2123   3.3313   4.5840   5.8008   7.1734
     7.8213   8.2898

          k = 0.2500-0.0000 0.0000 ( 11877 PWs)   bands (ev):

   -43.6017  -3.1497  -2.8923  -2.6512  -2.6068  -2.5583  -2.2467  -2.1506
    -1.9338  -1.6668  -1.4807  -1.3974  -1.2546  -1.2300  -1.1978  -1.1932
    -1.1603  -1.0884  -1.0708  -0.9590  -0.8865  -0.8196  -0.6811  -0.6187
    -0.5626  -0.4628  -0.2945  -0.2037  -0.1987   0.0232   0.1492   0.2046
     0.3687   0.3903   1.3789   2.7978   3.8948   5.2745   6.7039   7.6300
     8.3179   8.5484

          k = 0.2500 0.1250 0.0000 ( 11878 PWs)   bands (ev):

   -43.6001  -2.9000  -2.6278  -2.4002  -2.3937  -2.3159  -2.1210  -2.0538
    -1.9192  -1.7618  -1.5987  -1.5209  -1.4272  -1.3418  -1.3117  -1.2120
    -1.1835  -1.1203  -1.0802  -1.0253  -0.9256  -0.8441  -0.7802  -0.5852
    -0.4518  -0.4333  -0.3810  -0.2476  -0.2025  -0.0630   0.0756   0.2118
     0.4006   0.7714   1.8522   3.1395   4.2274   5.6433   7.0771   7.9272
     8.6070   8.8182

          k = 0.2500 0.2500 0.0000 ( 11857 PWs)   bands (ev):

   -43.5962  -2.4908  -2.2375  -2.1746  -2.1354  -2.0287  -2.0084  -1.9515
    -1.8432  -1.8142  -1.7185  -1.7116  -1.6815  -1.5888  -1.4770  -1.2939
    -1.2419  -1.1715  -0.8833  -0.7831  -0.7612  -0.6487  -0.5675  -0.5285
    -0.4863  -0.4239  -0.3576  -0.2921  -0.2274   0.0042   0.1042   0.4495
     0.7040   1.6377   2.7785   3.9775   5.1388   6.6035   8.0525   8.7746
     9.1314   9.4333

          k = 0.2500 0.3750 0.0000 ( 11826 PWs)   bands (ev):

   -43.5922  -2.4656  -2.4310  -2.3791  -2.3164  -2.2528  -2.2205  -2.1659
    -2.0369  -1.9179  -1.7429  -1.7301  -1.5532  -1.2724  -1.2150  -1.1639
    -1.0338  -0.9751  -0.7539  -0.6978  -0.6321  -0.5641  -0.5537  -0.4111
    -0.3681  -0.1511  -0.0135   0.1482   0.1806   0.2113   0.3952   1.3127
     1.9933   2.9520   4.0268   5.1676   6.4174   6.6155   7.0942   7.6878
     8.3866   8.8268

          k = 0.2500-0.5000 0.0000 ( 11818 PWs)   bands (ev):

   -43.5907  -2.5144  -2.5119  -2.4904  -2.4869  -2.3572  -2.3147  -2.2419
    -2.1176  -1.9888  -1.8197  -1.8004  -1.6016  -1.1497  -0.9975  -0.9925
    -0.9286  -0.8432  -0.7783  -0.7453  -0.6082  -0.6013  -0.5740  -0.3200
    -0.1806   0.0391   0.1077   0.2882   0.3532   0.3635   0.4135   3.6094
     3.6821   4.0493   4.2532   4.7294   5.0761   5.5246   6.9408   7.3098
     7.7762   8.5400

          k = 0.2500-0.3750 0.0000 ( 11826 PWs)   bands (ev):

   -43.5922  -2.4656  -2.4310  -2.3791  -2.3164  -2.2528  -2.2205  -2.1659
    -2.0369  -1.9179  -1.7429  -1.7301  -1.5532  -1.2724  -1.2150  -1.1639
    -1.0338  -0.9751  -0.7539  -0.6978  -0.6321  -0.5641  -0.5537  -0.4111
    -0.3681  -0.1511  -0.0135   0.1482   0.1806   0.2113   0.3952   1.3127
     1.9933   2.9520   4.0268   5.1676   6.4174   6.6155   7.0942   7.6878
     8.3866   8.8268

          k = 0.2500-0.2500 0.0000 ( 11857 PWs)   bands (ev):

   -43.5962  -2.4908  -2.2375  -2.1746  -2.1354  -2.0287  -2.0084  -1.9515
    -1.8432  -1.8142  -1.7185  -1.7116  -1.6815  -1.5888  -1.4770  -1.2939
    -1.2419  -1.1715  -0.8833  -0.7831  -0.7612  -0.6487  -0.5675  -0.5285
    -0.4863  -0.4239  -0.3576  -0.2921  -0.2274   0.0042   0.1042   0.4495
     0.7040   1.6377   2.7785   3.9775   5.1388   6.6035   8.0525   8.7745
     9.1314   9.4333

          k = 0.2500-0.1250 0.0000 ( 11878 PWs)   bands (ev):

   -43.6001  -2.9000  -2.6278  -2.4002  -2.3937  -2.3159  -2.1210  -2.0538
    -1.9192  -1.7618  -1.5987  -1.5209  -1.4272  -1.3418  -1.3117  -1.2120
    -1.1835  -1.1203  -1.0802  -1.0253  -0.9256  -0.8441  -0.7802  -0.5852
    -0.4518  -0.4333  -0.3810  -0.2476  -0.2025  -0.0630   0.0756   0.2118
     0.4006   0.7714   1.8522   3.1395   4.2274   5.6433   7.0771   7.9272
     8.6070   8.8182

          k = 0.3750-0.0000 0.0000 ( 11873 PWs)   bands (ev):

   -43.5979  -2.8631  -2.8438  -2.6144  -2.5567  -2.3155  -2.1040  -1.8346
    -1.6778  -1.6022  -1.4273  -1.4244  -1.3745  -1.3409  -1.3208  -1.1714
    -1.1370  -1.1322  -1.0914  -0.7945  -0.7465  -0.7442  -0.5443  -0.4418
    -0.2430  -0.1826   0.0085   0.0539   0.1400   0.3039   0.3327   0.6438
     0.7814   1.1918   2.5085   3.9181   4.9861   5.5421   5.8817   6.6767
     7.2443   8.1918

          k = 0.3750 0.1250 0.0000 ( 11868 PWs)   bands (ev):

   -43.5963  -2.6657  -2.6568  -2.4458  -2.4049  -2.1061  -2.0209  -1.9796
    -1.8380  -1.6269  -1.5917  -1.5512  -1.4062  -1.3928  -1.3461  -1.2546
    -1.1257  -1.0855  -1.0513  -0.8911  -0.8441  -0.6843  -0.6565  -0.4598
    -0.3689  -0.1817  -0.0854   0.0568   0.1369   0.2345   0.2610   0.8625
     1.1079   1.8700   3.0420   4.3096   5.3706   5.8820   6.1768   6.9568
     7.4468   8.3720

          k = 0.3750 0.2500 0.0000 ( 11826 PWs)   bands (ev):

   -43.5924  -2.4593  -2.4362  -2.3776  -2.3146  -2.2586  -2.2044  -2.1316
    -2.0323  -1.9103  -1.7422  -1.7257  -1.5620  -1.3197  -1.2224  -1.1727
    -1.0884  -0.9890  -0.7440  -0.6951  -0.6334  -0.5555  -0.5438  -0.3970
    -0.3592  -0.1512  -0.0197   0.1485   0.1808   0.2084   0.3940   1.3274
     2.0179   2.9965   4.1222   5.2492   6.3229   6.6670   7.0038   7.7197
     8.0680   8.8604

          k = 0.3750 0.3750 0.0000 ( 11799 PWs)   bands (ev):

   -43.5886  -2.7066  -2.6740  -2.6320  -2.5925  -2.4071  -2.3533  -2.3435
    -2.3273  -2.0468  -1.9089  -1.8581  -1.8304  -1.3779  -1.2633  -0.8461
    -0.6789  -0.6418  -0.3451  -0.3091  -0.2546  -0.1812  -0.0523  -0.0393
     0.0638   0.1281   0.1642   0.1942   0.2016   0.3113   0.4730   2.5386
     3.3768   4.4039   5.4528   6.5088   6.7473   7.3929   7.5939   8.0648
     8.9484   9.3529

          k = 0.3750-0.5000 0.0000 ( 11750 PWs)   bands (ev):

   -43.5868  -2.8137  -2.8079  -2.7246  -2.7155  -2.5230  -2.4752  -2.4491
    -2.4097  -2.1990  -2.0167  -1.9585  -1.8576  -1.2666  -1.2099  -0.7403
    -0.5633  -0.5096  -0.3056  -0.2066  -0.0843   0.0036   0.0542   0.0704
     0.1184   0.2593   0.3423   0.3844   0.4175   0.4328   0.5759   4.5728
     4.6194   5.1882   5.4682   6.0363   6.6127   7.2164   7.4218   8.3056
     8.7562   9.7056

          k = 0.3750-0.3750 0.0000 ( 11799 PWs)   bands (ev):

   -43.5886  -2.7066  -2.6740  -2.6320  -2.5925  -2.4071  -2.3533  -2.3435
    -2.3273  -2.0468  -1.9089  -1.8581  -1.8304  -1.3779  -1.2633  -0.8461
    -0.6789  -0.6418  -0.3451  -0.3091  -0.2546  -0.1812  -0.0523  -0.0393
     0.0638   0.1281   0.1642   0.1942   0.2016   0.3113   0.4730   2.5386
     3.3768   4.4039   5.4528   6.5088   6.7473   7.3929   7.5939   8.0648
     8.9484   9.3529

          k = 0.3750-0.2500 0.0000 ( 11826 PWs)   bands (ev):

   -43.5924  -2.4593  -2.4362  -2.3776  -2.3146  -2.2586  -2.2044  -2.1316
    -2.0323  -1.9103  -1.7422  -1.7257  -1.5620  -1.3197  -1.2224  -1.1727
    -1.0884  -0.9890  -0.7440  -0.6951  -0.6334  -0.5555  -0.5438  -0.3970
    -0.3592  -0.1512  -0.0197   0.1485   0.1808   0.2084   0.3940   1.3274
     2.0179   2.9965   4.1222   5.2492   6.3229   6.6670   7.0038   7.7197
     8.0680   8.8604

          k = 0.3750-0.1250 0.0000 ( 11868 PWs)   bands (ev):

   -43.5963  -2.6657  -2.6568  -2.4458  -2.4049  -2.1061  -2.0209  -1.9796
    -1.8380  -1.6269  -1.5917  -1.5512  -1.4062  -1.3928  -1.3461  -1.2546
    -1.1257  -1.0855  -1.0513  -0.8911  -0.8441  -0.6843  -0.6565  -0.4598
    -0.3689  -0.1817  -0.0854   0.0568   0.1369   0.2345   0.2610   0.8625
     1.1079   1.8700   3.0420   4.3096   5.3706   5.8820   6.1768   6.9568
     7.4468   8.3720

          k =-0.5000 0.0000 0.0000 ( 11796 PWs)   bands (ev):

   -43.5961  -2.9162  -2.9122  -2.5986  -2.5965  -2.1575  -2.0551  -1.7029
    -1.6845  -1.5408  -1.5144  -1.4965  -1.4065  -1.4047  -1.3993  -1.1858
    -1.1724  -1.1527  -1.0427  -0.8957  -0.7586  -0.4644  -0.4205  -0.3691
    -0.2188   0.0132   0.0964   0.1295   0.2253   0.2828   0.3089   2.4609
     2.7393   2.7966   2.8266   2.8887   3.4612   4.7949   5.3051   6.1384
     7.0126   7.7962

          k =-0.5000 0.1250 0.0000 ( 11862 PWs)   bands (ev):

   -43.5948  -2.7384  -2.7372  -2.4892  -2.4674  -2.1150  -2.0088  -1.8004
    -1.7339  -1.6895  -1.6099  -1.5826  -1.5375  -1.4158  -1.3998  -1.2767
    -1.1619  -1.1264  -1.0767  -0.7849  -0.6704  -0.6499  -0.5867  -0.3059
    -0.1873  -0.1379  -0.0383   0.1462   0.2323   0.2980   0.3592   2.8488
     3.0226   3.1504   3.3525   3.5321   4.0393   5.0108   5.5661   6.3666
     7.1991   7.9653

          k =-0.5000 0.2500 0.0000 ( 11818 PWs)   bands (ev):

   -43.5909  -2.5245  -2.4998  -2.4894  -2.4861  -2.3304  -2.3167  -2.2049
    -2.1167  -1.9774  -1.8117  -1.8005  -1.6051  -1.2389  -1.0168  -0.9956
    -0.9592  -0.8425  -0.7973  -0.7426  -0.6047  -0.6021  -0.5575  -0.3153
    -0.1611   0.0362   0.1161   0.2804   0.3531   0.3635   0.4140   3.6251
     3.6986   4.1083   4.3204   4.8532   5.2622   5.8294   6.2921   7.1088
     7.6877   8.5983

          k =-0.5000 0.3750 0.0000 ( 11750 PWs)   bands (ev):

   -43.5869  -2.8121  -2.8077  -2.7259  -2.7160  -2.5136  -2.4750  -2.4324
    -2.4313  -2.1945  -1.9680  -1.9608  -1.8772  -1.3273  -1.1854  -0.7278
    -0.5512  -0.5353  -0.3042  -0.2059  -0.0827  -0.0284   0.0509   0.0806
     0.1293   0.2550   0.3444   0.3793   0.4179   0.4336   0.5761   4.6061
     4.6291   5.3941   5.4003   6.2701   6.2963   7.1921   7.3071   8.4747
     8.4959   9.8182

          k =-0.5000-0.5000 0.0000 ( 11668 PWs)   bands (ev):

   -43.5851  -2.9534  -2.9478  -2.8217  -2.8099  -2.6717  -2.6198  -2.5080
    -2.4822  -2.3756  -2.1069  -1.9630  -1.9220  -1.2432  -1.1990  -0.6517
    -0.4308  -0.3951  -0.2630  -0.1118   0.0254   0.2169   0.2602   0.2842
     0.3001   0.4093   0.5238   0.5488   0.5771   0.5926   0.8001   5.2519
     5.3030   6.3063   6.3796   6.5866   7.2910   7.8315   7.8442   9.3891
     9.5691   9.9756

     the Fermi energy is     3.2505 ev

!    total energy              =    -520.61370868 Ry
[...]
    -1.9186  -1.7816  -1.5992  -1.5429  -1.4234  -1.3639  -1.2664  -1.2123
    -1.1845  -1.1434  -1.0882  -1.0277  -0.9061  -0.8547  -0.7948  -0.5832
    -0.4560  -0.4417  -0.3798  -0.2513  -0.2117  -0.0577   0.0648   0.2065
     0.3947   0.7522   1.8033   3.0311   4.1962   5.5889   7.0076   8.0314
     8.7079   8.9400

          k = 0.1250-0.1250 0.0000 ( 11887 PWs)   bands (ev):

   -43.7042  -3.6347  -3.0443  -2.6827  -2.5909  -2.4554  -2.4056  -2.2588
    -2.1439  -2.0100  -1.8808  -1.7309  -1.4532  -1.3528  -1.3094  -1.2588
    -1.2169  -1.1141  -1.0332  -0.8144  -0.7830  -0.7248  -0.6485  -0.5874
    -0.4531  -0.3426  -0.3251  -0.2025  -0.1523   0.0123   0.0764   0.1215
     0.2415   0.4561   1.0006   2.1747   3.2660   4.5043   5.7709   7.1718
     7.8280   8.2933

          k = 0.2500-0.0000 0.0000 ( 11877 PWs)   bands (ev):

   -43.7021  -3.1866  -2.9063  -2.6702  -2.6322  -2.4800  -2.2799  -2.1725
    -1.9224  -1.6492  -1.4896  -1.3972  -1.2470  -1.2408  -1.2197  -1.1985
    -1.1626  -1.0637  -1.0595  -0.9659  -0.8784  -0.8298  -0.6990  -0.6002
    -0.5624  -0.4567  -0.2921  -0.2105  -0.2059   0.0150   0.1429   0.1979
     0.3621   0.3794   1.3618   2.7421   3.8186   5.1998   6.6630   7.6191
     8.3326   8.5651

          k = 0.2500 0.1250 0.0000 ( 11878 PWs)   bands (ev):

   -43.7005  -2.9361  -2.6418  -2.4251  -2.4178  -2.2447  -2.1510  -2.0711
    -1.9144  -1.7810  -1.5966  -1.5319  -1.4239  -1.3349  -1.2728  -1.2081
    -1.1787  -1.1344  -1.0775  -1.0191  -0.9113  -0.8510  -0.7924  -0.5791
    -0.4538  -0.4418  -0.3822  -0.2538  -0.2108  -0.0677   0.0705   0.2031
     0.3935   0.7663   1.8379   3.0841   4.1553   5.5740   7.0340   7.9177
     8.6232   8.8316

          k = 0.2500 0.2500 0.0000 ( 11857 PWs)   bands (ev):

   -43.6966  -2.5222  -2.2646  -2.1980  -2.1288  -2.0455  -2.0038  -1.9409
    -1.8723  -1.8069  -1.7440  -1.7367  -1.7222  -1.5567  -1.4240  -1.2970
    -1.2004  -1.1345  -0.8406  -0.8046  -0.7633  -0.6589  -0.5764  -0.5366
    -0.4918  -0.4323  -0.3782  -0.2954  -0.2433   0.0086   0.0945   0.4466
     0.7112   1.6388   2.7667   3.9225   5.0741   6.5482   8.0090   8.7792
     9.1305   9.4283

          k = 0.2500 0.3750 0.0000 ( 11826 PWs)   bands (ev):

   -43.6928  -2.4898  -2.4640  -2.4042  -2.3433  -2.2574  -2.2288  -2.1312
    -2.0321  -1.8974  -1.7633  -1.7126  -1.5703  -1.2603  -1.2233  -1.1939
    -0.9946  -0.9458  -0.7280  -0.7078  -0.6411  -0.5682  -0.5550  -0.4165
    -0.3654  -0.1717  -0.0103   0.1308   0.1688   0.1989   0.3915   1.3141
     2.0135   2.9593   4.0140   5.1265   6.3883   6.5906   7.0964   7.6747
     8.3143   8.7806

          k = 0.2500-0.5000 0.0000 ( 11818 PWs)   bands (ev):

   -43.6912  -2.5417  -2.5294  -2.5259  -2.5165  -2.3485  -2.3268  -2.2108
    -2.1158  -1.9671  -1.8258  -1.7859  -1.6316  -1.1076  -1.0225  -0.9629
    -0.9101  -0.8753  -0.7650  -0.7522  -0.6230  -0.5951  -0.5817  -0.3053
    -0.1806   0.0381   0.1014   0.2864   0.3360   0.3492   0.3991   3.6399
     3.6768   4.0695   4.2682   4.7135   5.0755   5.5065   6.9227   7.2594
     7.6763   8.5043

          k = 0.2500-0.3750 0.0000 ( 11826 PWs)   bands (ev):

   -43.6928  -2.4898  -2.4640  -2.4042  -2.3433  -2.2574  -2.2288  -2.1312
    -2.0321  -1.8974  -1.7633  -1.7126  -1.5703  -1.2603  -1.2233  -1.1939
    -0.9946  -0.9458  -0.7280  -0.7078  -0.6411  -0.5682  -0.5550  -0.4165
    -0.3654  -0.1717  -0.0103   0.1308   0.1688   0.1989   0.3915   1.3141
     2.0135   2.9593   4.0140   5.1265   6.3883   6.5906   7.0964   7.6747
     8.3143   8.7806

          k = 0.2500-0.2500 0.0000 ( 11857 PWs)   bands (ev):

   -43.6966  -2.5222  -2.2646  -2.1980  -2.1288  -2.0455  -2.0038  -1.9409
    -1.8723  -1.8069  -1.7440  -1.7367  -1.7222  -1.5567  -1.4240  -1.2970
    -1.2004  -1.1345  -0.8406  -0.8046  -0.7633  -0.6589  -0.5764  -0.5366
    -0.4918  -0.4323  -0.3782  -0.2954  -0.2433   0.0086   0.0945   0.4466
     0.7112   1.6388   2.7667   3.9225   5.0741   6.5482   8.0090   8.7792
     9.1305   9.4283

          k = 0.2500-0.1250 0.0000 ( 11878 PWs)   bands (ev):

   -43.7005  -2.9361  -2.6418  -2.4251  -2.4178  -2.2447  -2.1510  -2.0711
    -1.9144  -1.7810  -1.5966  -1.5319  -1.4239  -1.3349  -1.2728  -1.2081
    -1.1787  -1.1344  -1.0775  -1.0191  -0.9113  -0.8510  -0.7924  -0.5791
    -0.4538  -0.4418  -0.3822  -0.2538  -0.2108  -0.0677   0.0705   0.2031
     0.3935   0.7663   1.8379   3.0841   4.1553   5.5740   7.0340   7.9177
     8.6232   8.8316

          k = 0.3750-0.0000 0.0000 ( 11873 PWs)   bands (ev):

   -43.6983  -2.8892  -2.8779  -2.6144  -2.5498  -2.2773  -2.1247  -1.8113
    -1.6846  -1.6078  -1.4328  -1.4109  -1.3815  -1.3629  -1.3515  -1.1752
    -1.1482  -1.1167  -1.0847  -0.7891  -0.7451  -0.7332  -0.5468  -0.4347
    -0.2342  -0.1848  -0.0020   0.0489   0.1235   0.2989   0.3253   0.6594
     0.7582   1.1992   2.4917   3.8500   4.8917   5.4978   5.8855   6.6615
     7.1588   8.1734

          k = 0.3750 0.1250 0.0000 ( 11868 PWs)   bands (ev):

   -43.6968  -2.6918  -2.6905  -2.4467  -2.4035  -2.0960  -2.0326  -1.9788
    -1.8350  -1.6245  -1.5842  -1.5492  -1.4400  -1.3872  -1.3167  -1.2657
    -1.1272  -1.0821  -1.0428  -0.8878  -0.8535  -0.6849  -0.6545  -0.4642
    -0.3574  -0.1753  -0.1022   0.0592   0.1206   0.2233   0.2493   0.8587
     1.1138   1.8720   3.0230   4.2387   5.2880   5.8507   6.1840   6.9408
     7.3653   8.3523

          k = 0.3750 0.2500 0.0000 ( 11826 PWs)   bands (ev):

   -43.6929  -2.4876  -2.4651  -2.4053  -2.3422  -2.2626  -2.2261  -2.1035
    -2.0263  -1.8791  -1.7604  -1.7120  -1.5735  -1.2765  -1.2370  -1.1972
    -1.0165  -0.9847  -0.7340  -0.7072  -0.6442  -0.5687  -0.5424  -0.4080
    -0.3488  -0.1717  -0.0130   0.1311   0.1694   0.1962   0.3907   1.3241
     2.0337   2.9972   4.0985   5.1816   6.2855   6.6359   7.0147   7.7075
     7.9880   8.8446

          k = 0.3750 0.3750 0.0000 ( 11799 PWs)   bands (ev):

   -43.6891  -2.7386  -2.7026  -2.6615  -2.6210  -2.4086  -2.3486  -2.3394
    -2.3069  -2.0147  -1.9001  -1.8561  -1.8534  -1.3716  -1.2638  -0.8245
    -0.6932  -0.5939  -0.3294  -0.2826  -0.2699  -0.1830  -0.0762  -0.0561
     0.0560   0.1464   0.1510   0.1693   0.1812   0.2984   0.4699   2.5369
     3.4011   4.4070   5.4293   6.4885   6.7045   7.3973   7.5977   8.0116
     8.9399   9.3048

          k = 0.3750-0.5000 0.0000 ( 11750 PWs)   bands (ev):

   -43.6875  -2.8510  -2.8318  -2.7525  -2.7467  -2.5175  -2.4814  -2.4303
    -2.4038  -2.1606  -1.9893  -1.9837  -1.8731  -1.2487  -1.2193  -0.6754
    -0.5708  -0.4953  -0.3262  -0.2202  -0.0940   0.0161   0.0625   0.0656
     0.1084   0.2640   0.3315   0.3831   0.4015   0.4147   0.5594   4.5899
     4.6126   5.2201   5.4868   6.0229   6.6011   7.1898   7.3786   8.2953
     8.6987   9.6716

          k = 0.3750-0.3750 0.0000 ( 11799 PWs)   bands (ev):

   -43.6891  -2.7386  -2.7026  -2.6615  -2.6210  -2.4086  -2.3486  -2.3394
    -2.3069  -2.0147  -1.9001  -1.8561  -1.8534  -1.3716  -1.2638  -0.8245
    -0.6932  -0.5939  -0.3294  -0.2826  -0.2699  -0.1830  -0.0762  -0.0561
     0.0560   0.1464   0.1510   0.1693   0.1812   0.2984   0.4699   2.5369
     3.4011   4.4070   5.4293   6.4885   6.7045   7.3973   7.5977   8.0116
     8.9399   9.3048

          k = 0.3750-0.2500 0.0000 ( 11826 PWs)   bands (ev):

   -43.6929  -2.4876  -2.4651  -2.4053  -2.3422  -2.2626  -2.2261  -2.1035
    -2.0263  -1.8791  -1.7604  -1.7120  -1.5735  -1.2765  -1.2370  -1.1972
    -1.0165  -0.9847  -0.7340  -0.7072  -0.6442  -0.5687  -0.5424  -0.4080
    -0.3488  -0.1717  -0.0130   0.1311   0.1694   0.1962   0.3907   1.3241
     2.0337   2.9972   4.0985   5.1816   6.2855   6.6359   7.0147   7.7075
     7.9880   8.8446

          k = 0.3750-0.1250 0.0000 ( 11868 PWs)   bands (ev):

   -43.6968  -2.6918  -2.6905  -2.4467  -2.4035  -2.0960  -2.0326  -1.9788
    -1.8350  -1.6245  -1.5842  -1.5492  -1.4400  -1.3872  -1.3167  -1.2657
    -1.1272  -1.0821  -1.0428  -0.8878  -0.8535  -0.6849  -0.6545  -0.4642
    -0.3574  -0.1753  -0.1022   0.0592   0.1206   0.2233   0.2493   0.8587
     1.1138   1.8720   3.0230   4.2387   5.2880   5.8507   6.1840   6.9408
     7.3653   8.3523

          k =-0.5000 0.0000 0.0000 ( 11796 PWs)   bands (ev):

   -43.6966  -2.9445  -2.9434  -2.5888  -2.5866  -2.1250  -2.0582  -1.6794
    -1.6678  -1.5697  -1.5219  -1.5084  -1.4337  -1.4273  -1.4265  -1.1756
    -1.1646  -1.1292  -1.0588  -0.8741  -0.7704  -0.4619  -0.3759  -0.3664
    -0.2348   0.0033   0.0834   0.1189   0.2095   0.2788   0.3022   2.5581
     2.7362   2.7659   2.8128   2.8628   3.4380   4.7415   5.0980   6.1262
     6.9592   7.7952

          k =-0.5000 0.1250 0.0000 ( 11862 PWs)   bands (ev):

   -43.6952  -2.7687  -2.7666  -2.4834  -2.4674  -2.0964  -2.0208  -1.7706
    -1.7602  -1.7061  -1.6469  -1.5497  -1.5021  -1.4307  -1.4114  -1.2761
    -1.1705  -1.1180  -1.0732  -0.7580  -0.6681  -0.6450  -0.6015  -0.3064
    -0.1855  -0.1450  -0.0468   0.1489   0.2270   0.2820   0.3384   2.9094
     3.0109   3.1368   3.3529   3.5175   4.0205   4.9701   5.3755   6.3538
     7.1440   7.9564

          k =-0.5000 0.2500 0.0000 ( 11818 PWs)   bands (ev):

   -43.6914  -2.5380  -2.5296  -2.5252  -2.5218  -2.3392  -2.3303  -2.1737
    -2.1157  -1.9422  -1.8261  -1.7816  -1.6336  -1.1557  -1.0210  -0.9756
    -0.9446  -0.8749  -0.7922  -0.7507  -0.6208  -0.6055  -0.5644  -0.3052
    -0.1630   0.0373   0.1103   0.2803   0.3360   0.3494   0.3997   3.6413
     3.6894   4.1212   4.3285   4.8331   5.2539   5.8184   6.1604   7.0858
     7.6325   8.5661

          k =-0.5000 0.3750 0.0000 ( 11750 PWs)   bands (ev):

   -43.6875  -2.8503  -2.8319  -2.7507  -2.7494  -2.5117  -2.4811  -2.4201
    -2.4193  -2.1581  -1.9852  -1.9444  -1.8876  -1.2999  -1.1969  -0.6769
    -0.5459  -0.5211  -0.3252  -0.2193  -0.0928   0.0037   0.0480   0.0677
     0.1214   0.2608   0.3344   0.3790   0.4011   0.4151   0.5596   4.6036
     4.6233   5.4165   5.4210   6.2328   6.3094   7.1898   7.2481   8.4468
     8.4550   9.7729

          k =-0.5000-0.5000 0.0000 ( 11668 PWs)   bands (ev):

   -43.6858  -2.9920  -2.9719  -2.8485  -2.8436  -2.6651  -2.6256  -2.4958
    -2.4776  -2.3280  -2.1342  -1.9510  -1.9170  -1.2365  -1.1969  -0.5637
    -0.4375  -0.4058  -0.2801  -0.1218   0.0134   0.2056   0.2468   0.2871
     0.3009   0.4927   0.4954   0.5472   0.5504   0.5554   0.7789   5.2442
     5.2846   6.3318   6.4063   6.6368   7.2436   7.8291   7.8531   9.3704
     9.5521   9.9625

     the Fermi energy is     3.2376 ev

!    total energy              =    -520.61564443 Ry
     estimated scf accuracy    <          8.6E-09 Ry
     smearing contrib. (-TS)   =      -0.00006225 Ry
     internal energy E=F+TS    =    -520.61558218 Ry

     The total energy is F=E-TS. E is the sum of the following terms:
     one-electron contribution =   -6280.21592737 Ry
     hartree contribution      =    3189.90755309 Ry
     xc contribution           =    -137.58424546 Ry
     ewald contribution        =    2707.46581482 Ry
     DFT-D3 Dispersion         =      -0.18877727 Ry

     convergence has been achieved in   7 iterations

     negative rho (up, down):  1.019E-05 0.000E+00

     Forces acting on atoms (cartesian axes, Ry/au):

     atom    1 type  2   force =     0.00000007    0.00000009   -0.00053528
     atom    2 type  2   force =    -0.00000001    0.00000015   -0.00092008
     atom    3 type  2   force =     0.00000005    0.00000004    0.00084282
     atom    4 type  2   force =    -0.00000008   -0.00000019    0.00018830
     atom    5 type  2   force =     0.00000012   -0.00000003    0.00075417
     atom    6 type  2   force =     0.00000001   -0.00000013   -0.00037322
     atom    7 type  1   force =    -0.00000017    0.00000007    0.00004329
     The non-local contrib.  to forces
     atom    1 type  2   force =     0.00000009    0.00000007   -0.02772089
     atom    2 type  2   force =     0.00000001    0.00000007   -0.09151169
     atom    3 type  2   force =     0.00000001    0.00000001    0.00220343
     atom    4 type  2   force =    -0.00000007   -0.00000017   -0.00060828
     atom    5 type  2   force =    -0.00000038    0.00000012    0.03433978
     atom    6 type  2   force =    -0.00000002   -0.00000012    0.01465200
     atom    7 type  1   force =    -0.00000018    0.00000003    0.04482594
     The ionic contribution  to forces
     atom    1 type  2   force =     0.00000225    0.00000259  -94.88663751
     atom    2 type  2   force =     0.00000057    0.00000544 -151.12668602
     atom    3 type  2   force =     0.00000425    0.00000023   22.23522170
     atom    4 type  2   force =    -0.00000101   -0.00000539  -36.40443577
     atom    5 type  2   force =    -0.00000063    0.00000049  136.68570768
     atom    6 type  2   force =    -0.00000051   -0.00000419   80.71624010
     atom    7 type  1   force =    -0.00000493    0.00000084   42.78058982
     The local contribution  to forces
     atom    1 type  2   force =    -0.00000225   -0.00000255   94.90832389
     atom    2 type  2   force =    -0.00000060   -0.00000534  151.20681336
     atom    3 type  2   force =    -0.00000419   -0.00000023  -22.23607707
     atom    4 type  2   force =     0.00000101    0.00000534   36.40403507
     atom    5 type  2   force =     0.00000117   -0.00000063 -136.71637791
     atom    6 type  2   force =     0.00000054    0.00000414  -80.72676074
     atom    7 type  1   force =     0.00000491   -0.00000081  -42.82296666
     The core correction contribution to forces
     atom    1 type  2   force =    -0.00000001   -0.00000001    0.00026849
     atom    2 type  2   force =    -0.00000000   -0.00000002    0.00632201
     atom    3 type  2   force =    -0.00000002    0.00000000   -0.00000352
     atom    4 type  2   force =     0.00000001    0.00000002    0.00014193
     atom    5 type  2   force =    -0.00000002    0.00000000    0.00080922
     atom    6 type  2   force =     0.00000000    0.00000002   -0.00066955
     atom    7 type  1   force =     0.00000000    0.00000000    0.00000000
     The Hubbard contrib.    to forces
     atom    1 type  2   force =     0.00000000    0.00000000    0.00000000
     atom    2 type  2   force =     0.00000000    0.00000000    0.00000000
     atom    3 type  2   force =     0.00000000    0.00000000    0.00000000
     atom    4 type  2   force =     0.00000000    0.00000000    0.00000000
     atom    5 type  2   force =     0.00000000    0.00000000    0.00000000
     atom    6 type  2   force =     0.00000000    0.00000000    0.00000000
     atom    7 type  1   force =     0.00000000    0.00000000    0.00000000
     The SCF correction term to forces
     atom    1 type  2   force =     0.00000001   -0.00000002   -0.00007539
     atom    2 type  2   force =     0.00000002    0.00000001   -0.00018194
     atom    3 type  2   force =     0.00000002    0.00000002   -0.00000270
     atom    4 type  2   force =    -0.00000002   -0.00000000    0.00009618
     atom    5 type  2   force =     0.00000003   -0.00000002    0.00005260
     atom    6 type  2   force =    -0.00000000    0.00000000   -0.00002008
     atom    7 type  1   force =    -0.00000000    0.00000001    0.00004679

     DFT-D3 dispersion contribution to forces:
     atom    1 type  2   force =    -0.00000001   -0.00000001    0.00529960
     atom    2 type  2   force =    -0.00000000   -0.00000001    0.00431767
     atom    3 type  2   force =    -0.00000001   -0.00000000   -0.00050556
     atom    4 type  2   force =     0.00000000    0.00000001    0.00095264
     atom    5 type  2   force =    -0.00000003   -0.00000000   -0.00378374
     atom    6 type  2   force =    -0.00000000    0.00000001   -0.00382148
     atom    7 type  1   force =     0.00000005    0.00000000   -0.00245912

     Total force =     0.001609     Total SCF correction =     0.000231
     SCF correction compared to forces is large: reduce conv_thr to get better values


     Computing stress (Cartesian axis) and pressure


     negative rho (up, down):  1.019E-05 0.000E+00
          total   stress  (Ry/bohr**3)                   (kbar)     P=      -14.32
  -0.00014064   0.00000000  -0.00000000          -20.69        0.00       -0.00
   0.00000000  -0.00010138  -0.00000000            0.00      -14.91       -0.00
  -0.00000000  -0.00000000  -0.00004993           -0.00       -0.00       -7.34

     Energy error            =      4.6E-06 Ry
     Gradient error          =      9.2E-04 Ry/Bohr

     bfgs converged in  17 scf cycles and  16 bfgs steps
     (criteria: energy <  1.0E-04 Ry, force <  1.0E-03 Ry/Bohr)

     End of BFGS Geometry Optimization

     Final energy             =    -520.6156444324 Ry

     File ./Ag_mp-124_100_bridge_0/Ag_mp-124_100_bridge_0.bfgs deleted, as requested
Begin final coordinates

ATOMIC_POSITIONS (angstrom)
Ag            2.1766615397        0.7255518928       12.0496595960
Ag            0.7255521190        2.1766581710       10.0028666626
Ag            2.1766639637        0.7255574128       16.1082687119
Ag            0.7255538814        2.1766651255       14.0848577344
Ag            2.1766700989        0.7255581534       20.2097631821
Ag            0.7255579342        2.1766679550       18.1349759722
Li            2.1766585052        2.1766658946       22.3920329117
End final coordinates



     Writing all to output data dir ./Ag_mp-124_100_bridge_0/Ag_mp-124_100_bridge_0.save/

     init_run     :      5.49s CPU      8.24s WALL (       1 calls)
     electrons    :     65.85s CPU     82.79s WALL (      17 calls)
     update_pot   :      5.20s CPU      5.86s WALL (      16 calls)
     forces       :      5.35s CPU      7.26s WALL (      17 calls)
     force_dftd3  :      0.99s CPU      1.40s WALL (      17 calls)
     stress       :     14.75s CPU     15.26s WALL (      17 calls)
     stres_dftd3  :      0.20s CPU      0.26s WALL (      17 calls)

     Called by init_run:
     wfcinit      :      0.32s CPU      0.57s WALL (       1 calls)
     potinit      :      1.18s CPU      2.67s WALL (       1 calls)
     hinit0       :      3.85s CPU      4.64s WALL (       1 calls)

     Called by electrons:
     c_bands      :     51.50s CPU     55.29s WALL (     154 calls)
     sum_band     :      7.99s CPU      8.93s WALL (     154 calls)
     v_of_rho     :      3.36s CPU     12.88s WALL (     158 calls)
     newd         :      3.21s CPU      5.38s WALL (     158 calls)
     mix_rho      :      0.34s CPU      0.56s WALL (     154 calls)
     energy_dftd3 :      0.04s CPU      0.04s WALL (      17 calls)

     Called by c_bands:
     init_us_2    :      0.45s CPU      0.49s WALL (    3087 calls)
     init_us_2:cp :      0.45s CPU      0.49s WALL (    3087 calls)
     cegterg      :     46.66s CPU     48.77s WALL (    1386 calls)

     Called by *egterg:
     cdiaghg      :     10.72s CPU     10.86s WALL (    4858 calls)
     h_psi        :     28.40s CPU     30.14s WALL (    5128 calls)
     s_psi        :      1.49s CPU      1.52s WALL (    5128 calls)
     g_psi        :      0.13s CPU      0.13s WALL (    3733 calls)

     Called by h_psi:
     h_psi:calbec :      2.37s CPU      2.66s WALL (    5128 calls)
     vloc_psi     :     24.47s CPU     25.85s WALL (    5128 calls)
     add_vuspsi   :      1.46s CPU      1.53s WALL (    5128 calls)

     General routines
     calbec       :      3.98s CPU      4.38s WALL (    7279 calls)
     fft          :      8.56s CPU     22.87s WALL (    2474 calls)
     ffts         :      1.04s CPU      1.30s WALL (     312 calls)
     fftw         :     25.52s CPU     26.95s WALL (  347210 calls)
     interpolate  :      1.27s CPU      2.37s WALL (     158 calls)

     Parallel routines

     PWSCF        :   1m37.85s CPU   2m 1.99s WALL


   This run was terminated on:   5:23:22  24Jul2025            

=------------------------------------------------------------------------------=
   JOB DONE.
=------------------------------------------------------------------------------=
