
     Program PWSCF v.7.2 starts on 18Jul2025 at 11:24:18 

     This program is part of the open-source Quantum ESPRESSO suite
     for quantum simulation of materials; please cite
         "P. Giannozzi et al., J. Phys.:Condens. Matter 21 395502 (2009);
         "P. Giannozzi et al., J. Phys.:Condens. Matter 29 465901 (2017);
         "P. Giannozzi et al., J. Chem. Phys. 152 154105 (2020);
          URL http://www.quantum-espresso.org", 
     in publications or presentations arising from this work. More details at
     http://www.quantum-espresso.org/quote

     Parallel version (MPI & OpenMP), running on     128 processor cores
     Number of MPI processes:               128
     Threads/MPI process:                     1

     MPI processes distributed on     2 nodes
     241554 MiB available memory on the printing compute node when the environment starts

     Reading input from Ag_mp-124_111.in

     Current dimensions of program PWSCF are:
     Max number of different atomic species (ntypx) = 10
     Max number of k-points (npk) =  40000
     Max angular momentum in pseudopotentials (lmaxx) =  4
     Message from routine iosys:
     restart disabled: needed files not found

     K-points division:     npool     =       4
     R & G space division:  proc/nbgrp/npool/nimage =      32
     Subspace diagonalization in iterative solution of the eigenvalue problem:
     a serial algorithm will be used


     Parallelization info
     --------------------
     sticks:   dense  smooth     PW     G-vecs:    dense   smooth      PW
     Min          32      14      4                 9247     2668     476
     Max          33      15      5                 9307     2719     521
     Sum        1039     451    151               296663    86301   15967

     Using Slab Decomposition



     bravais-lattice index     =            0
     lattice parameter (alat)  =       5.4844  a.u.
     unit-cell volume          =    1569.1543 (a.u.)^3
     number of atoms/cell      =            6
     number of atomic types    =            1
     number of electrons       =        66.00
     number of Kohn-Sham states=           40
     kinetic-energy cutoff     =      55.0000  Ry
     charge density cutoff     =     500.0000  Ry
     scf convergence threshold =      1.0E-06
     mixing beta               =       0.3000
     number of iterations used =            8  plain     mixing
     energy convergence thresh.=      1.0E-04
     force convergence thresh. =      1.0E-03
     Exchange-correlation= PBE
                           (   1   4   3   4   0   0   0)
     nstep                     =          500


     celldm(1)=   5.484398  celldm(2)=   0.000000  celldm(3)=   0.000000
     celldm(4)=   0.000000  celldm(5)=   0.000000  celldm(6)=   0.000000

     crystal axes: (cart. coord. in units of alat)
               a(1) = (   0.999045   0.000000   0.043685 )  
               a(2) = (   0.498568   0.865749   0.043685 )  
               a(3) = (   0.000000   0.000000  10.997690 )  

     reciprocal axes: (cart. coord. in units 2 pi/alat)
               b(1) = (  1.000956 -0.576430  0.000000 )  
               b(2) = (  0.000000  1.155069  0.000000 )  
               b(3) = ( -0.003976 -0.002298  0.090928 )  


     PseudoPot. # 1 for Ag read from file:
     /home/ecastro/trabajo_final/pseudos/Ag.pbe-n-rrkjus_psl.1.0.0.UPF
     MD5 check sum: 81cdf87bacf708300839c66ee23ce017
     Pseudo is Ultrasoft + core correction, Zval = 11.0
     Generated using &quot;atomic&quot; code by A. Dal Corso  v.6.2.2
     Using radial grid of 1237 points,  6 beta functions with: 
                l(1) =   0
                l(2) =   0
                l(3) =   1
                l(4) =   1
                l(5) =   2
                l(6) =   2
     Q(r) pseudized with 0 coefficients 


     atomic species   valence    mass     pseudopotential
        Ag            11.00   107.86820     Ag( 1.00)

     No symmetry found



   Cartesian axes

     site n.     atom                  positions (alat units)
         1           Ag  tau(   1) = (   0.6717609   0.1958243   3.4893255  )
         2           Ag  tau(   2) = (   0.6354667   0.7523774   4.3193443  )
         3           Ag  tau(   3) = (   1.0996503   0.4431812   5.1493632  )
         4           Ag  tau(   4) = (   0.5647885   0.1339850   5.9356968  )
         5           Ag  tau(   5) = (   0.5284944   0.6905382   6.7657157  )
         6           Ag  tau(   6) = (   0.9926779   0.3813420   7.5957346  )

     --------------------------------------------
     DFT-D3 Dispersion Correction (no 3-body):
     --------------------------------------------
       Reference C6 values for interpolation: 

         atom   Coordination number   C6
         Ag         0.000           853.49
         Ag         0.968           537.23

       Values used:

         atom   Coordination number  R0_AB[au]  C6      C8
         Ag         6.506            3.147    537.23  47741.54
         Ag         8.709            3.147    537.23  47741.54
         Ag         8.718            3.147    537.23  47741.54
         Ag         8.718            3.147    537.23  47741.54
         Ag         8.709            3.147    537.23  47741.54
         Ag         6.506            3.147    537.23  47741.54

         Molecular C6 ( Ry / a.u.^6 ) =     19340.14


     number of k points=    34  Methfessel-Paxton smearing, width (Ry)=  0.0300
                       cart. coord. in units 2pi/alat
        k(    1) = (   0.0000000   0.0000000   0.0000000), wk =   0.0312500
        k(    2) = (   0.0000000   0.1443836   0.0000000), wk =   0.0625000
        k(    3) = (   0.0000000   0.2887672   0.0000000), wk =   0.0625000
        k(    4) = (   0.0000000   0.4331508   0.0000000), wk =   0.0625000
        k(    5) = (   0.0000000  -0.5775343   0.0000000), wk =   0.0312500
        k(    6) = (   0.1251194  -0.0720538   0.0000000), wk =   0.0625000
        k(    7) = (   0.1251194   0.0723298   0.0000000), wk =   0.0625000
        k(    8) = (   0.1251194   0.2167134   0.0000000), wk =   0.0625000
        k(    9) = (   0.1251194   0.3610970   0.0000000), wk =   0.0625000
        k(   10) = (   0.1251194  -0.6495881   0.0000000), wk =   0.0625000
        k(   11) = (   0.1251194  -0.5052045   0.0000000), wk =   0.0625000
        k(   12) = (   0.1251194  -0.3608209   0.0000000), wk =   0.0625000
        k(   13) = (   0.1251194  -0.2164373   0.0000000), wk =   0.0625000
        k(   14) = (   0.2502389  -0.1441075   0.0000000), wk =   0.0625000
        k(   15) = (   0.2502389   0.0002761   0.0000000), wk =   0.0625000
        k(   16) = (   0.2502389   0.1446597   0.0000000), wk =   0.0625000
        k(   17) = (   0.2502389   0.2890432   0.0000000), wk =   0.0625000
        k(   18) = (   0.2502389  -0.7216419   0.0000000), wk =   0.0625000
        k(   19) = (   0.2502389  -0.5772583   0.0000000), wk =   0.0625000
        k(   20) = (   0.2502389  -0.4328747   0.0000000), wk =   0.0625000
        k(   21) = (   0.2502389  -0.2884911   0.0000000), wk =   0.0625000
        k(   22) = (   0.3753583  -0.2161613   0.0000000), wk =   0.0625000
        k(   23) = (   0.3753583  -0.0717777   0.0000000), wk =   0.0625000
        k(   24) = (   0.3753583   0.0726059   0.0000000), wk =   0.0625000
        k(   25) = (   0.3753583   0.2169895   0.0000000), wk =   0.0625000
        k(   26) = (   0.3753583  -0.7936956   0.0000000), wk =   0.0625000
        k(   27) = (   0.3753583  -0.6493120   0.0000000), wk =   0.0625000
        k(   28) = (   0.3753583  -0.5049284   0.0000000), wk =   0.0625000
        k(   29) = (   0.3753583  -0.3605449   0.0000000), wk =   0.0625000
        k(   30) = (  -0.5004778   0.2882150   0.0000000), wk =   0.0312500
        k(   31) = (  -0.5004778   0.4325986   0.0000000), wk =   0.0625000
        k(   32) = (  -0.5004778   0.5769822   0.0000000), wk =   0.0625000
        k(   33) = (  -0.5004778   0.7213658   0.0000000), wk =   0.0625000
        k(   34) = (  -0.5004778  -0.2893193   0.0000000), wk =   0.0312500

     Dense  grid:   296663 G-vectors     FFT dimensions: (  40,  40, 432)

     Smooth grid:    86301 G-vectors     FFT dimensions: (  25,  25, 288)

     Estimated max dynamical RAM per process >      16.97 MB

     Estimated total dynamical RAM >       1.91 GB
     Cannot read rho : file not found

     Initial potential from superposition of free atoms

     starting charge      65.9976, renormalised to      66.0000

     negative rho (up, down):  3.445E-05 0.000E+00
     Message from routine qexsd_readschema :
     xml data file ./Ag_111/Ag_111.save/data-file-schema.xml not found
     Cannot read wfcs: file not found
     Starting wfcs are   54 randomized atomic wfcs

     total cpu time spent up to now is        6.8 secs

     per-process dynamical memory:   172.5 Mb

     Self-consistent Calculation

     iteration #  1     ecut=    55.00 Ry     beta= 0.30
     Davidson diagonalization with overlap
     c_bands:  1 eigenvalues not converged
     c_bands:  2 eigenvalues not converged
     c_bands:  1 eigenvalues not converged
     c_bands:  1 eigenvalues not converged
     c_bands:  2 eigenvalues not converged
     c_bands:  2 eigenvalues not converged
     c_bands:  2 eigenvalues not converged
     ethr =  1.00E-05,  avg # of iterations = 18.5

     negative rho (up, down):  2.819E-05 0.000E+00

     total cpu time spent up to now is        8.5 secs

     total energy              =    -505.70251378 Ry
     estimated scf accuracy    <       0.12932897 Ry

     iteration #  2     ecut=    55.00 Ry     beta= 0.30
     Davidson diagonalization with overlap
     ethr =  1.96E-04,  avg # of iterations =  8.3

     negative rho (up, down):  2.657E-05 0.000E+00

     total cpu time spent up to now is        9.1 secs

     total energy              =    -505.63478327 Ry
     estimated scf accuracy    <       2.27522016 Ry

     iteration #  3     ecut=    55.00 Ry     beta= 0.30
     Davidson diagonalization with overlap
     ethr =  1.96E-04,  avg # of iterations =  7.3

     negative rho (up, down):  2.279E-05 0.000E+00

     total cpu time spent up to now is        9.6 secs

     total energy              =    -505.74705962 Ry
     estimated scf accuracy    <       0.02427273 Ry

     iteration #  4     ecut=    55.00 Ry     beta= 0.30
     Davidson diagonalization with overlap
     ethr =  3.68E-05,  avg # of iterations =  2.8

     negative rho (up, down):  1.825E-05 0.000E+00

     total cpu time spent up to now is       10.0 secs

     total energy              =    -505.74910639 Ry
     estimated scf accuracy    <       0.00310143 Ry

     iteration #  5     ecut=    55.00 Ry     beta= 0.30
     Davidson diagonalization with overlap
     ethr =  4.70E-06,  avg # of iterations =  7.7

     negative rho (up, down):  1.737E-05 0.000E+00

     total cpu time spent up to now is       10.5 secs

     total energy              =    -505.74920427 Ry
     estimated scf accuracy    <       0.00127710 Ry

     iteration #  6     ecut=    55.00 Ry     beta= 0.30
     Davidson diagonalization with overlap
     ethr =  1.93E-06,  avg # of iterations =  9.1

     negative rho (up, down):  1.382E-05 0.000E+00

     total cpu time spent up to now is       11.1 secs

     total energy              =    -505.74859847 Ry
     estimated scf accuracy    <       0.05481404 Ry

     iteration #  7     ecut=    55.00 Ry     beta= 0.30
     Davidson diagonalization with overlap
     ethr =  1.93E-06,  avg # of iterations =  7.7

     negative rho (up, down):  1.367E-05 0.000E+00

     total cpu time spent up to now is       11.6 secs

     total energy              =    -505.74950378 Ry
     estimated scf accuracy    <       0.00005886 Ry

     iteration #  8     ecut=    55.00 Ry     beta= 0.30
     Davidson diagonalization with overlap
     ethr =  8.92E-08,  avg # of iterations =  2.6

     negative rho (up, down):  1.296E-05 0.000E+00

     total cpu time spent up to now is       12.0 secs

     total energy              =    -505.74951520 Ry
     estimated scf accuracy    <       0.00001712 Ry

     iteration #  9     ecut=    55.00 Ry     beta= 0.30
     Davidson diagonalization with overlap
     ethr =  2.59E-08,  avg # of iterations =  1.9

     negative rho (up, down):  1.253E-05 0.000E+00

     total cpu time spent up to now is       12.3 secs

     total energy              =    -505.74951660 Ry
     estimated scf accuracy    <       0.00000357 Ry

     iteration # 10     ecut=    55.00 Ry     beta= 0.30
     Davidson diagonalization with overlap
     ethr =  5.41E-09,  avg # of iterations =  3.1

     negative rho (up, down):  1.230E-05 0.000E+00

     total cpu time spent up to now is       12.7 secs

     total energy              =    -505.74951743 Ry
     estimated scf accuracy    <       0.00000140 Ry

     iteration # 11     ecut=    55.00 Ry     beta= 0.30
     Davidson diagonalization with overlap
     ethr =  2.12E-09,  avg # of iterations =  2.3

     negative rho (up, down):  1.177E-05 0.000E+00

     total cpu time spent up to now is       13.0 secs

     End of self-consistent calculation

          k = 0.0000 0.0000 0.0000 ( 10919 PWs)   bands (ev):

    -4.2997  -3.8322  -3.2042  -3.0375  -2.9240  -2.8677  -1.5687  -1.5288
    -1.5016  -1.5016  -1.4746  -1.4746  -1.4068  -1.4068  -1.3752  -1.3609
    -1.3609  -1.2662  -1.2662  -1.2345  -1.2345  -0.5552  -0.5130  -0.5130
    -0.4989  -0.4988  -0.3843  -0.3843  -0.1511  -0.1511   0.0607   0.0607
     0.2350   0.2351   0.8844   2.6421   3.3030   7.1558   7.3357   7.9677

          k = 0.0000 0.1444 0.0000 ( 10876 PWs)   bands (ev):

    -3.8889  -3.4418  -2.8503  -2.7832  -2.6478  -2.5553  -1.7885  -1.7013
    -1.6347  -1.5706  -1.5412  -1.4511  -1.3349  -1.3321  -1.2902  -1.2734
    -1.2242  -1.2061  -1.1810  -1.1064  -1.0694  -1.0313  -0.7323  -0.6661
    -0.5993  -0.5062  -0.4875  -0.3597  -0.3528  -0.1447  -0.1053   0.0714
     0.2523   0.5190   1.7095   3.2918   4.1817   7.4330   7.7063   8.3173

          k = 0.0000 0.2888 0.0000 ( 10871 PWs)   bands (ev):

    -3.0115  -2.7587  -2.5926  -2.4936  -2.3711  -2.2153  -2.1459  -2.0189
    -1.8413  -1.7241  -1.5804  -1.3912  -1.2958  -1.2403  -1.2328  -1.0746
    -1.0457  -0.9472  -0.8254  -0.8230  -0.7488  -0.6874  -0.6240  -0.5717
    -0.5206  -0.4390  -0.3673  -0.3648  -0.2500  -0.1216   0.0893   0.2872
     0.3566   1.5139   2.9785   4.6682   6.0613   8.2825   8.8195   9.3503

          k = 0.0000 0.4332 0.0000 ( 10791 PWs)   bands (ev):

    -2.8959  -2.8771  -2.7562  -2.7201  -2.6555  -2.4984  -2.4634  -2.3643
    -2.0367  -1.7020  -1.5354  -1.4680  -1.3679  -1.1473  -1.1321  -0.8660
    -0.7745  -0.6520  -0.3929  -0.3017  -0.1340  -0.1187   0.0209   0.0506
     0.0576   0.0976   0.1620   0.1689   0.2109   0.3447   0.9154   1.2732
     1.9199   3.1229   4.6234   6.3003   7.9579   8.4375   8.9410   9.6018

          k = 0.0000-0.5775 0.0000 ( 10736 PWs)   bands (ev):

    -3.0338  -2.9771  -2.8990  -2.8578  -2.7391  -2.6351  -2.5950  -2.5030
    -2.1497  -1.7387  -1.6613  -1.5629  -1.4376  -1.2017  -0.9121  -0.7992
    -0.6907  -0.4114  -0.3682  -0.1047  -0.0273   0.1062   0.1978   0.2871
     0.2987   0.3530   0.3637   0.4232   0.4433   0.4759   3.1094   3.6474
     4.1317   4.4627   4.6878   4.8173   6.9627   7.4168   7.9094   8.5352

          k = 0.1251-0.0721 0.0000 ( 10876 PWs)   bands (ev):

    -3.8889  -3.4418  -2.8503  -2.7832  -2.6478  -2.5553  -1.7885  -1.7013
    -1.6347  -1.5706  -1.5412  -1.4511  -1.3349  -1.3321  -1.2902  -1.2734
    -1.2242  -1.2061  -1.1810  -1.1064  -1.0694  -1.0313  -0.7323  -0.6661
    -0.5993  -0.5062  -0.4875  -0.3597  -0.3528  -0.1447  -0.1053   0.0714
     0.2523   0.5190   1.7095   3.2918   4.1817   7.4331   7.7061   8.3172

          k = 0.1251 0.0723 0.0000 ( 10875 PWs)   bands (ev):

    -3.8889  -3.4418  -2.8503  -2.7832  -2.6478  -2.5553  -1.7885  -1.7013
    -1.6347  -1.5706  -1.5412  -1.4510  -1.3349  -1.3321  -1.2902  -1.2733
    -1.2242  -1.2061  -1.1810  -1.1064  -1.0695  -1.0313  -0.7323  -0.6661
    -0.5993  -0.5062  -0.4874  -0.3597  -0.3528  -0.1447  -0.1053   0.0714
     0.2524   0.5190   1.7094   3.2918   4.1817   7.4323   7.7088   8.2940

          k = 0.1251 0.2167 0.0000 ( 10868 PWs)   bands (ev):

    -3.1826  -2.8392  -2.3950  -2.3761  -2.3025  -2.1780  -1.9989  -1.9135
    -1.8734  -1.8325  -1.6546  -1.5650  -1.4766  -1.4649  -1.2761  -1.2743
    -1.2056  -1.1493  -1.0370  -0.9078  -0.8066  -0.7600  -0.7282  -0.6555
    -0.5903  -0.4129  -0.3705  -0.2501  -0.2331  -0.2285  -0.0048   0.1721
     0.2878   1.2522   2.6251   4.2722   5.5178   7.9977   8.4544   8.9723

          k = 0.1251 0.3611 0.0000 ( 10820 PWs)   bands (ev):

    -2.6477  -2.5335  -2.4906  -2.4161  -2.3716  -2.3014  -2.1758  -1.9871
    -1.9705  -1.7602  -1.6482  -1.5042  -1.4359  -1.3447  -1.2456  -1.1926
    -1.0611  -0.9200  -0.8462  -0.7985  -0.6647  -0.6017  -0.4590  -0.3783
    -0.1722  -0.1354   0.0675   0.0915   0.1281   0.2729   0.7419   0.8764
     1.4904   2.6446   4.1199   5.8219   7.5073   9.2053   9.9190  10.3799

          k = 0.1251-0.6496 0.0000 ( 10762 PWs)   bands (ev):

    -2.8326  -2.7612  -2.7112  -2.6211  -2.5234  -2.4964  -2.3546  -2.2322
    -2.0797  -1.8373  -1.6883  -1.4578  -1.4035  -1.2589  -1.1131  -1.0312
    -0.7298  -0.6521  -0.5665  -0.3140  -0.2826  -0.1782  -0.1026  -0.0388
     0.0264   0.0421   0.2085   0.2580   0.3163   0.4408   2.8674   3.1906
     3.7997   4.7241   5.7729   6.4508   7.3204   7.8641   8.3798   9.1092

          k = 0.1251-0.5052 0.0000 ( 10760 PWs)   bands (ev):

    -2.8326  -2.7612  -2.7111  -2.6211  -2.5234  -2.4965  -2.3546  -2.2322
    -2.0797  -1.8373  -1.6884  -1.4578  -1.4035  -1.2589  -1.1131  -1.0312
    -0.7298  -0.6521  -0.5665  -0.3140  -0.2826  -0.1782  -0.1025  -0.0387
     0.0264   0.0420   0.2085   0.2580   0.3163   0.4408   2.8674   3.1906
     3.7997   4.7241   5.7729   6.4508   7.3204   7.8641   8.3799   9.1092

          k = 0.1251-0.3608 0.0000 ( 10818 PWs)   bands (ev):

    -2.6477  -2.5335  -2.4906  -2.4161  -2.3716  -2.3014  -2.1758  -1.9871
    -1.9705  -1.7601  -1.6482  -1.5041  -1.4359  -1.3447  -1.2456  -1.1926
    -1.0610  -0.9200  -0.8462  -0.7985  -0.6647  -0.6017  -0.4590  -0.3783
    -0.1723  -0.1353   0.0675   0.0914   0.1281   0.2729   0.7419   0.8764
     1.4904   2.6446   4.1199   5.8219   7.5073   9.2057   9.9089  10.4687

          k = 0.1251-0.2164 0.0000 ( 10863 PWs)   bands (ev):

    -3.1826  -2.8392  -2.3950  -2.3761  -2.3025  -2.1780  -1.9989  -1.9135
    -1.8734  -1.8325  -1.6545  -1.5650  -1.4766  -1.4648  -1.2761  -1.2743
    -1.2056  -1.1494  -1.0369  -0.9077  -0.8065  -0.7600  -0.7281  -0.6555
    -0.5903  -0.4129  -0.3704  -0.2501  -0.2332  -0.2284  -0.0048   0.1721
     0.2878   1.2522   2.6251   4.2722   5.5178   7.9986   8.4464   9.0611

          k = 0.2502-0.1441 0.0000 ( 10871 PWs)   bands (ev):

    -3.0115  -2.7587  -2.5926  -2.4936  -2.3711  -2.2153  -2.1459  -2.0189
    -1.8413  -1.7241  -1.5804  -1.3912  -1.2958  -1.2403  -1.2328  -1.0746
    -1.0457  -0.9472  -0.8254  -0.8230  -0.7488  -0.6874  -0.6240  -0.5717
    -0.5206  -0.4390  -0.3673  -0.3648  -0.2500  -0.1216   0.0893   0.2872
     0.3566   1.5139   2.9785   4.6682   6.0613   8.2824   8.8194   9.3503

          k = 0.2502 0.0003 0.0000 ( 10868 PWs)   bands (ev):

    -3.1826  -2.8392  -2.3950  -2.3761  -2.3025  -2.1780  -1.9989  -1.9135
    -1.8734  -1.8325  -1.6546  -1.5650  -1.4766  -1.4649  -1.2761  -1.2743
    -1.2056  -1.1493  -1.0370  -0.9078  -0.8066  -0.7600  -0.7282  -0.6555
    -0.5903  -0.4129  -0.3705  -0.2501  -0.2331  -0.2285  -0.0048   0.1721
     0.2878   1.2522   2.6251   4.2722   5.5178   7.9976   8.4544   8.9723

          k = 0.2502 0.1447 0.0000 ( 10860 PWs)   bands (ev):

    -3.0115  -2.7587  -2.5925  -2.4935  -2.3711  -2.2152  -2.1458  -2.0189
    -1.8412  -1.7240  -1.5804  -1.3912  -1.2958  -1.2403  -1.2328  -1.0746
    -1.0457  -0.9473  -0.8254  -0.8230  -0.7488  -0.6874  -0.6240  -0.5716
    -0.5206  -0.4389  -0.3672  -0.3648  -0.2499  -0.1216   0.0894   0.2872
     0.3566   1.5139   2.9785   4.6682   6.0613   8.2819   8.8260   9.3088

          k = 0.2502 0.2890 0.0000 ( 10819 PWs)   bands (ev):

    -2.6477  -2.5335  -2.4906  -2.4161  -2.3716  -2.3014  -2.1758  -1.9871
    -1.9704  -1.7602  -1.6482  -1.5042  -1.4360  -1.3447  -1.2456  -1.1926
    -1.0610  -0.9201  -0.8462  -0.7985  -0.6647  -0.6017  -0.4591  -0.3782
    -0.1722  -0.1354   0.0674   0.0914   0.1281   0.2729   0.7419   0.8764
     1.4904   2.6446   4.1199   5.8219   7.5073   9.2049   9.9268  10.3189

          k = 0.2502-0.7216 0.0000 ( 10755 PWs)   bands (ev):

    -2.5314  -2.5224  -2.3899  -2.3217  -2.2118  -2.1451  -2.0576  -1.9334
    -1.8982  -1.8673  -1.7136  -1.5884  -1.5323  -1.3715  -1.2219  -1.1017
    -1.0674  -0.9674  -0.9643  -0.7719  -0.7288  -0.5158  -0.4560  -0.4349
    -0.3007  -0.0786   0.1904   0.2916   0.3174   0.4406   2.7669   3.0783
     3.7729   4.8261   6.1641   7.7228   9.0817   9.1879   9.3504   9.6020

          k = 0.2502-0.5773 0.0000 ( 10783 PWs)   bands (ev):

    -2.5949  -2.3947  -2.3612  -2.2891  -2.2325  -2.1436  -2.0872  -2.0668
    -1.8821  -1.8331  -1.7692  -1.5550  -1.4498  -1.3227  -1.2268  -1.1606
    -1.0523  -0.8411  -0.8254  -0.7732  -0.6703  -0.4760  -0.3960  -0.3131
    -0.0445  -0.0306   0.1008   0.1489   0.2503   0.2841   5.4558   5.5117
     5.7778   6.1130   6.5551   7.0262   7.6455   8.2643   8.6708   8.9134

          k = 0.2502-0.4329 0.0000 ( 10756 PWs)   bands (ev):

    -2.5314  -2.5224  -2.3899  -2.3218  -2.2118  -2.1451  -2.0576  -1.9334
    -1.8982  -1.8673  -1.7136  -1.5884  -1.5323  -1.3715  -1.2220  -1.1017
    -1.0674  -0.9674  -0.9643  -0.7719  -0.7288  -0.5157  -0.4560  -0.4350
    -0.3007  -0.0785   0.1905   0.2917   0.3174   0.4407   2.7669   3.0783
     3.7729   4.8261   6.1641   7.7228   9.0817   9.1879   9.3504   9.6020

          k = 0.2502-0.2885 0.0000 ( 10818 PWs)   bands (ev):

    -2.6477  -2.5335  -2.4906  -2.4161  -2.3716  -2.3014  -2.1758  -1.9871
    -1.9705  -1.7601  -1.6482  -1.5041  -1.4359  -1.3447  -1.2456  -1.1926
    -1.0610  -0.9200  -0.8462  -0.7985  -0.6647  -0.6017  -0.4590  -0.3783
    -0.1723  -0.1353   0.0675   0.0914   0.1281   0.2729   0.7419   0.8764
     1.4904   2.6446   4.1199   5.8219   7.5073   9.2057   9.9089  10.4687

          k = 0.3754-0.2162 0.0000 ( 10791 PWs)   bands (ev):

    -2.8959  -2.8771  -2.7562  -2.7201  -2.6555  -2.4984  -2.4634  -2.3643
    -2.0367  -1.7020  -1.5354  -1.4680  -1.3679  -1.1473  -1.1321  -0.8660
    -0.7745  -0.6520  -0.3929  -0.3017  -0.1340  -0.1187   0.0209   0.0506
     0.0576   0.0976   0.1620   0.1689   0.2109   0.3447   0.9154   1.2732
     1.9199   3.1229   4.6234   6.3003   7.9579   8.4375   8.9410   9.6019

          k = 0.3754-0.0718 0.0000 ( 10820 PWs)   bands (ev):

    -2.6477  -2.5335  -2.4906  -2.4161  -2.3716  -2.3014  -2.1758  -1.9871
    -1.9705  -1.7602  -1.6482  -1.5042  -1.4359  -1.3447  -1.2456  -1.1926
    -1.0611  -0.9200  -0.8462  -0.7985  -0.6647  -0.6017  -0.4590  -0.3783
    -0.1722  -0.1354   0.0675   0.0915   0.1281   0.2729   0.7419   0.8764
     1.4904   2.6446   4.1199   5.8219   7.5073   9.2052   9.9191  10.3800

          k = 0.3754 0.0726 0.0000 ( 10819 PWs)   bands (ev):

    -2.6477  -2.5335  -2.4906  -2.4161  -2.3716  -2.3014  -2.1758  -1.9871
    -1.9704  -1.7602  -1.6482  -1.5042  -1.4360  -1.3447  -1.2456  -1.1926
    -1.0610  -0.9201  -0.8462  -0.7985  -0.6647  -0.6017  -0.4591  -0.3782
    -0.1722  -0.1354   0.0674   0.0914   0.1281   0.2729   0.7419   0.8764
     1.4904   2.6446   4.1199   5.8219   7.5073   9.2049   9.9269  10.3190

          k = 0.3754 0.2170 0.0000 ( 10794 PWs)   bands (ev):

    -2.8959  -2.8771  -2.7562  -2.7202  -2.6555  -2.4984  -2.4634  -2.3643
    -2.0367  -1.7020  -1.5354  -1.4681  -1.3679  -1.1473  -1.1321  -0.8661
    -0.7745  -0.6520  -0.3929  -0.3018  -0.1340  -0.1188   0.0209   0.0506
     0.0575   0.0977   0.1620   0.1690   0.2109   0.3446   0.9154   1.2732
     1.9199   3.1229   4.6234   6.3003   7.9578   8.4375   8.9410   9.6017

          k = 0.3754-0.7937 0.0000 ( 10771 PWs)   bands (ev):

    -2.8326  -2.7612  -2.7112  -2.6211  -2.5234  -2.4965  -2.3547  -2.2322
    -2.0798  -1.8373  -1.6883  -1.4578  -1.4036  -1.2589  -1.1131  -1.0312
    -0.7298  -0.6521  -0.5666  -0.3140  -0.2826  -0.1782  -0.1026  -0.0388
     0.0264   0.0420   0.2085   0.2580   0.3163   0.4408   2.8674   3.1906
     3.7997   4.7241   5.7729   6.4507   7.3204   7.8641   8.3798   9.1092

          k = 0.3754-0.6493 0.0000 ( 10768 PWs)   bands (ev):

    -2.5949  -2.3947  -2.3611  -2.2891  -2.2325  -2.1436  -2.0872  -2.0668
    -1.8821  -1.8330  -1.7692  -1.5550  -1.4498  -1.3226  -1.2267  -1.1606
    -1.0523  -0.8412  -0.8254  -0.7732  -0.6703  -0.4759  -0.3959  -0.3131
    -0.0445  -0.0305   0.1009   0.1489   0.2503   0.2842   5.4558   5.5117
     5.7778   6.1130   6.5551   7.0262   7.6455   8.2643   8.6709   8.9134

          k = 0.3754-0.5049 0.0000 ( 10783 PWs)   bands (ev):

    -2.5949  -2.3947  -2.3612  -2.2891  -2.2325  -2.1436  -2.0872  -2.0668
    -1.8821  -1.8331  -1.7692  -1.5550  -1.4498  -1.3227  -1.2268  -1.1606
    -1.0523  -0.8411  -0.8254  -0.7732  -0.6703  -0.4760  -0.3960  -0.3131
    -0.0445  -0.0306   0.1008   0.1489   0.2503   0.2841   5.4558   5.5117
     5.7778   6.1130   6.5551   7.0262   7.6455   8.2643   8.6709   8.9134

          k = 0.3754-0.3605 0.0000 ( 10760 PWs)   bands (ev):

    -2.8326  -2.7612  -2.7111  -2.6211  -2.5234  -2.4965  -2.3546  -2.2322
    -2.0797  -1.8373  -1.6884  -1.4578  -1.4035  -1.2589  -1.1131  -1.0312
    -0.7298  -0.6521  -0.5665  -0.3140  -0.2826  -0.1782  -0.1025  -0.0387
     0.0264   0.0420   0.2085   0.2580   0.3163   0.4408   2.8674   3.1906
     3.7997   4.7241   5.7729   6.4508   7.3204   7.8641   8.3799   9.1092

          k =-0.5005 0.2882 0.0000 ( 10736 PWs)   bands (ev):

    -3.0338  -2.9771  -2.8990  -2.8578  -2.7391  -2.6351  -2.5950  -2.5030
    -2.1497  -1.7387  -1.6613  -1.5629  -1.4376  -1.2017  -0.9121  -0.7992
    -0.6907  -0.4114  -0.3682  -0.1047  -0.0273   0.1062   0.1978   0.2871
     0.2987   0.3530   0.3637   0.4232   0.4433   0.4759   3.1094   3.6474
     4.1317   4.4627   4.6878   4.8173   6.9627   7.4168   7.9094   8.5352

          k =-0.5005 0.4326 0.0000 ( 10762 PWs)   bands (ev):

    -2.8326  -2.7612  -2.7112  -2.6211  -2.5234  -2.4964  -2.3546  -2.2322
    -2.0797  -1.8373  -1.6883  -1.4578  -1.4035  -1.2589  -1.1131  -1.0312
    -0.7298  -0.6521  -0.5665  -0.3140  -0.2826  -0.1782  -0.1026  -0.0388
     0.0264   0.0421   0.2085   0.2580   0.3163   0.4408   2.8674   3.1906
     3.7997   4.7241   5.7729   6.4508   7.3204   7.8641   8.3799   9.1092

          k =-0.5005 0.5770 0.0000 ( 10755 PWs)   bands (ev):

    -2.5314  -2.5224  -2.3899  -2.3217  -2.2118  -2.1451  -2.0576  -1.9334
    -1.8982  -1.8673  -1.7136  -1.5884  -1.5323  -1.3715  -1.2219  -1.1017
    -1.0674  -0.9674  -0.9643  -0.7719  -0.7288  -0.5158  -0.4560  -0.4349
    -0.3007  -0.0786   0.1904   0.2916   0.3174   0.4407   2.7669   3.0783
     3.7729   4.8261   6.1641   7.7228   9.0817   9.1879   9.3503   9.6020

          k =-0.5005 0.7214 0.0000 ( 10771 PWs)   bands (ev):

    -2.8326  -2.7612  -2.7112  -2.6211  -2.5234  -2.4965  -2.3547  -2.2322
    -2.0798  -1.8373  -1.6883  -1.4578  -1.4036  -1.2589  -1.1131  -1.0312
    -0.7298  -0.6521  -0.5666  -0.3140  -0.2826  -0.1782  -0.1026  -0.0388
     0.0264   0.0420   0.2085   0.2580   0.3163   0.4408   2.8674   3.1906
     3.7997   4.7241   5.7729   6.4507   7.3204   7.8641   8.3798   9.1092

          k =-0.5005-0.2893 0.0000 ( 10756 PWs)   bands (ev):

    -3.0339  -2.9771  -2.8990  -2.8578  -2.7392  -2.6351  -2.5951  -2.5030
    -2.1498  -1.7388  -1.6612  -1.5628  -1.4376  -1.2018  -0.9122  -0.7993
    -0.6908  -0.4115  -0.3682  -0.1047  -0.0273   0.1062   0.1979   0.2872
     0.2987   0.3530   0.3636   0.4231   0.4433   0.4759   3.1094   3.6473
     4.1317   4.4627   4.6878   4.8173   6.9627   7.4168   7.9094   8.5351

     the Fermi energy is     3.1255 ev

!    total energy              =    -505.74951758 Ry
     estimated scf accuracy    <       0.00000007 Ry
     smearing contrib. (-TS)   =      -0.00237769 Ry
     internal energy E=F+TS    =    -505.74713989 Ry

     The total energy is F=E-TS. E is the sum of the following terms:
     one-electron contribution =   -6606.10038393 Ry
     hartree contribution      =    3353.57401761 Ry
     xc contribution           =    -133.97822892 Ry
     ewald contribution        =    2880.93400886 Ry
     DFT-D3 Dispersion         =      -0.17655351 Ry

     convergence has been achieved in  11 iterations

     negative rho (up, down):  1.177E-05 0.000E+00

     Forces acting on atoms (cartesian axes, Ry/au):

     atom    1 type  1   force =     0.00010503    0.00005821   -0.00239242
     atom    2 type  1   force =    -0.00031541   -0.00018330    0.00721812
     atom    3 type  1   force =     0.00009850    0.00005526   -0.00223560
     atom    4 type  1   force =    -0.00008589   -0.00004707    0.00195324
     atom    5 type  1   force =     0.00030968    0.00018063   -0.00709212
     atom    6 type  1   force =    -0.00011191   -0.00006373    0.00254879
     The non-local contrib.  to forces
     atom    1 type  1   force =     0.00225733    0.00130259   -0.05155899
     atom    2 type  1   force =     0.00196062    0.00113262   -0.04481653
     atom    3 type  1   force =    -0.00009835   -0.00005456    0.00221842
     atom    4 type  1   force =     0.00010867    0.00006242   -0.00243975
     atom    5 type  1   force =    -0.00196500   -0.00113389    0.04491439
     atom    6 type  1   force =    -0.00226282   -0.00130613    0.05172564
     The ionic contribution  to forces
     atom    1 type  1   force =     7.04093601    4.07026806 -161.02052627
     atom    2 type  1   force =     4.23652670    2.44907769  -96.88594776
     atom    3 type  1   force =     1.41219399    0.81636988  -32.29573737
     atom    4 type  1   force =    -1.41219399   -0.81636988   32.29573737
     atom    5 type  1   force =    -4.23652670   -2.44907769   96.88594776
     atom    6 type  1   force =    -7.04093601   -4.07026806  161.02052627
     The local contribution  to forces
     atom    1 type  1   force =    -7.04260838   -4.07123280  161.05875720
     atom    2 type  1   force =    -4.23865842   -2.45030801   96.93464007
     atom    3 type  1   force =    -1.41201435   -0.81626787   32.29165499
     atom    4 type  1   force =     1.41199764    0.81625749  -32.29127787
     atom    5 type  1   force =     4.23865728    2.45030571  -96.93465014
     atom    6 type  1   force =     7.04260953    4.07123517 -161.05883077
     The core correction contribution to forces
     atom    1 type  1   force =    -0.00024919   -0.00014390    0.00569952
     atom    2 type  1   force =     0.00000746    0.00000445   -0.00017358
     atom    3 type  1   force =     0.00000641    0.00000367   -0.00014593
     atom    4 type  1   force =    -0.00000642   -0.00000376    0.00014712
     atom    5 type  1   force =    -0.00000743   -0.00000447    0.00017098
     atom    6 type  1   force =     0.00024920    0.00014403   -0.00570082
     The Hubbard contrib.    to forces
     atom    1 type  1   force =     0.00000000    0.00000000    0.00000000
     atom    2 type  1   force =     0.00000000    0.00000000    0.00000000
     atom    3 type  1   force =     0.00000000    0.00000000    0.00000000
     atom    4 type  1   force =     0.00000000    0.00000000    0.00000000
     atom    5 type  1   force =     0.00000000    0.00000000    0.00000000
     atom    6 type  1   force =     0.00000000    0.00000000    0.00000000
     The SCF correction term to forces
     atom    1 type  1   force =    -0.00000000   -0.00000000    0.00000000
     atom    2 type  1   force =     0.00000000    0.00000000   -0.00000000
     atom    3 type  1   force =     0.00000000    0.00000000   -0.00000000
     atom    4 type  1   force =    -0.00000000   -0.00000000    0.00000000
     atom    5 type  1   force =    -0.00000525    0.00000055    0.00010946
     atom    6 type  1   force =     0.00000997    0.00000531   -0.00018193

     DFT-D3 dispersion contribution to forces:
     atom    1 type  1   force =    -0.00021822   -0.00012615    0.00499051
     atom    2 type  1   force =    -0.00015678   -0.00009063    0.00358549
     atom    3 type  1   force =    -0.00001748   -0.00001010    0.00039973
     atom    4 type  1   force =     0.00001748    0.00001010   -0.00039973
     atom    5 type  1   force =     0.00015678    0.00009063   -0.00358549
     atom    6 type  1   force =     0.00021822    0.00012615   -0.00499051

     Total force =     0.007546     Total SCF correction =     0.000213


     Computing stress (Cartesian axis) and pressure


     negative rho (up, down):  1.177E-05 0.000E+00
          total   stress  (Ry/bohr**3)                   (kbar)     P=      -15.47
  -0.00011671   0.00000003  -0.00000151          -17.17        0.00       -0.22
   0.00000003  -0.00011674  -0.00000087            0.00      -17.17       -0.13
  -0.00000151  -0.00000087  -0.00008202           -0.22       -0.13      -12.07


     BFGS Geometry Optimization
     Energy error            =      0.0E+00 Ry
     Gradient error          =      7.1E-03 Ry/Bohr

     number of scf cycles    =   1
     number of bfgs steps    =   0

     energy             new  =    -505.7495175781 Ry

     new trust radius        =       0.0071011797 bohr
     new conv_thr            =       0.0000010000 Ry


ATOMIC_POSITIONS (angstrom)
Ag            1.9495966967        0.5683247470       10.1267839913    0   0   0
Ag            1.8442630363        2.1835635018       12.5356798267    0   0   0
Ag            3.1914251139        1.2862086380       14.9445756621    0   0   0
Ag            1.6391395924        0.3888537743       17.2266875061    0   0   0
Ag            1.5339698077        2.0041881162       19.6318303511
Ag            2.8809087888        1.1067039384       22.0458279380



     Writing config-only to output data dir ./Ag_111/Ag_111.save/
     NEW-OLD atomic charge density approx. for the potential

     negative rho (up, down):  1.187E-05 0.000E+00

     total cpu time spent up to now is       14.7 secs

     per-process dynamical memory:   184.9 Mb

     Self-consistent Calculation

     iteration #  1     ecut=    55.00 Ry     beta= 0.30
     Davidson diagonalization with overlap
     ethr =  1.00E-06,  avg # of iterations =  3.0

     Threshold (ethr) on eigenvalues was too large:
     Diagonalizing with lowered threshold

     Davidson diagonalization with overlap
     ethr =  6.01E-09,  avg # of iterations =  4.6

     negative rho (up, down):  1.184E-05 0.000E+00

     total cpu time spent up to now is       15.7 secs

     total energy              =    -505.74956932 Ry
     estimated scf accuracy    <       0.00000552 Ry

     iteration #  2     ecut=    55.00 Ry     beta= 0.30
     Davidson diagonalization with overlap
     ethr =  8.36E-09,  avg # of iterations =  2.1

     negative rho (up, down):  1.183E-05 0.000E+00

     total cpu time spent up to now is       16.1 secs

     total energy              =    -505.74955297 Ry
     estimated scf accuracy    <       0.00108031 Ry

     iteration #  3     ecut=    55.00 Ry     beta= 0.30
     Davidson diagonalization with overlap
     ethr =  8.36E-09,  avg # of iterations =  2.0

     negative rho (up, down):  1.183E-05 0.000E+00

     total cpu time spent up to now is       16.5 secs

     total energy              =    -505.74957134 Ry
     estimated scf accuracy    <       0.00000141 Ry

     iteration #  4     ecut=    55.00 Ry     beta= 0.30
     Davidson diagonalization with overlap
     ethr =  2.14E-09,  avg # of iterations =  1.6

     negative rho (up, down):  1.182E-05 0.000E+00

     total cpu time spent up to now is       16.8 secs

     total energy              =    -505.74957136 Ry
     estimated scf accuracy    <       0.00000205 Ry

     iteration #  5     ecut=    55.00 Ry     beta= 0.30
     Davidson diagonalization with overlap
     ethr =  2.14E-09,  avg # of iterations =  1.1

     negative rho (up, down):  1.180E-05 0.000E+00

     total cpu time spent up to now is       17.1 secs

     End of self-consistent calculation

          k = 0.0000 0.0000 0.0000 ( 10919 PWs)   bands (ev):

    -4.3014  -3.8323  -3.2038  -3.0389  -2.9237  -2.8671  -1.5703  -1.5289
    -1.5030  -1.5030  -1.4762  -1.4762  -1.4075  -1.4074  -1.3766  -1.3616
    -1.3616  -1.2655  -1.2655  -1.2341  -1.2341  -0.5562  -0.5142  -0.5142
    -0.4997  -0.4996  -0.3836  -0.3836  -0.1519  -0.1519   0.0590   0.0590
     0.2346   0.2346   0.8834   2.6403   3.3016   7.1556   7.3369   7.9700

          k = 0.0000 0.1444 0.0000 ( 10876 PWs)   bands (ev):

    -3.8906  -3.4419  -2.8501  -2.7845  -2.6471  -2.5546  -1.7900  -1.7028
    -1.6356  -1.5717  -1.5408  -1.4514  -1.3353  -1.3337  -1.2916  -1.2733
    -1.2248  -1.2066  -1.1816  -1.1075  -1.0687  -1.0308  -0.7324  -0.6672
    -0.5996  -0.5066  -0.4880  -0.3607  -0.3525  -0.1458  -0.1076   0.0695
     0.2519   0.5179   1.7084   3.2901   4.1804   7.4328   7.7072   8.3194

          k = 0.0000 0.2888 0.0000 ( 10871 PWs)   bands (ev):

    -3.0132  -2.7592  -2.5938  -2.4933  -2.3719  -2.2149  -2.1460  -2.0194
    -1.8406  -1.7246  -1.5811  -1.3920  -1.2964  -1.2408  -1.2345  -1.0750
    -1.0459  -0.9474  -0.8254  -0.8235  -0.7494  -0.6888  -0.6241  -0.5726
    -0.5203  -0.4392  -0.3681  -0.3655  -0.2506  -0.1230   0.0873   0.2868
     0.3556   1.5120   2.9767   4.6670   6.0601   8.2820   8.8203   9.3524

          k = 0.0000 0.4332 0.0000 ( 10791 PWs)   bands (ev):

    -2.8975  -2.8785  -2.7576  -2.7209  -2.6558  -2.4981  -2.4626  -2.3641
    -2.0351  -1.7029  -1.5365  -1.4685  -1.3695  -1.1474  -1.1326  -0.8675
    -0.7727  -0.6528  -0.3941  -0.3034  -0.1339  -0.1200   0.0190   0.0501
     0.0564   0.0965   0.1616   0.1685   0.2102   0.3443   0.9143   1.2728
     1.9204   3.1208   4.6213   6.2997   7.9568   8.4362   8.9405   9.6017

          k = 0.0000-0.5775 0.0000 ( 10736 PWs)   bands (ev):

    -3.0353  -2.9787  -2.9006  -2.8582  -2.7397  -2.6353  -2.5938  -2.5026
    -2.1479  -1.7392  -1.6628  -1.5635  -1.4393  -1.2017  -0.9127  -0.7973
    -0.6922  -0.4125  -0.3696  -0.1060  -0.0293   0.1057   0.1971   0.2856
     0.2974   0.3525   0.3633   0.4232   0.4430   0.4755   3.1081   3.6470
     4.1316   4.4619   4.6868   4.8165   6.9622   7.4147   7.9083   8.5351

          k = 0.1251-0.0721 0.0000 ( 10876 PWs)   bands (ev):

    -3.8906  -3.4419  -2.8501  -2.7845  -2.6471  -2.5546  -1.7900  -1.7028
    -1.6356  -1.5717  -1.5408  -1.4514  -1.3353  -1.3337  -1.2916  -1.2733
    -1.2248  -1.2066  -1.1816  -1.1075  -1.0687  -1.0308  -0.7324  -0.6672
    -0.5996  -0.5066  -0.4880  -0.3607  -0.3525  -0.1458  -0.1076   0.0695
     0.2519   0.5179   1.7084   3.2901   4.1804   7.4328   7.7072   8.3193

          k = 0.1251 0.0723 0.0000 ( 10875 PWs)   bands (ev):

    -3.8906  -3.4419  -2.8501  -2.7845  -2.6472  -2.5546  -1.7900  -1.7028
    -1.6356  -1.5717  -1.5409  -1.4514  -1.3353  -1.3337  -1.2916  -1.2732
    -1.2249  -1.2066  -1.1816  -1.1075  -1.0688  -1.0308  -0.7324  -0.6672
    -0.5996  -0.5067  -0.4880  -0.3607  -0.3525  -0.1459  -0.1076   0.0695
     0.2519   0.5179   1.7083   3.2901   4.1804   7.4321   7.7098   8.2961

          k = 0.1251 0.2167 0.0000 ( 10868 PWs)   bands (ev):

    -3.1843  -2.8394  -2.3966  -2.3757  -2.3028  -2.1775  -2.0003  -1.9131
    -1.8737  -1.8339  -1.6552  -1.5648  -1.4768  -1.4656  -1.2765  -1.2752
    -1.2062  -1.1497  -1.0377  -0.9083  -0.8070  -0.7609  -0.7273  -0.6565
    -0.5906  -0.4133  -0.3709  -0.2510  -0.2337  -0.2300  -0.0071   0.1714
     0.2869   1.2505   2.6235   4.2708   5.5166   7.9973   8.4552   8.9745

          k = 0.1251 0.3611 0.0000 ( 10820 PWs)   bands (ev):

    -2.6493  -2.5351  -2.4919  -2.4160  -2.3724  -2.3020  -2.1746  -1.9868
    -1.9695  -1.7609  -1.6492  -1.5048  -1.4371  -1.3455  -1.2463  -1.1930
    -1.0610  -0.9201  -0.8454  -0.7993  -0.6652  -0.6021  -0.4604  -0.3795
    -0.1735  -0.1371   0.0666   0.0907   0.1271   0.2724   0.7411   0.8757
     1.4907   2.6425   4.1179   5.8210   7.5060   9.2045   9.9193  10.3819

          k = 0.1251-0.6496 0.0000 ( 10762 PWs)   bands (ev):

    -2.8342  -2.7629  -2.7127  -2.6214  -2.5241  -2.4965  -2.3533  -2.2318
    -2.0782  -1.8379  -1.6900  -1.4583  -1.4043  -1.2598  -1.1133  -1.0303
    -0.7309  -0.6522  -0.5678  -0.3145  -0.2834  -0.1789  -0.1042  -0.0402
     0.0254   0.0414   0.2078   0.2574   0.3154   0.4402   2.8662   3.1899
     3.8000   4.7226   5.7713   6.4499   7.3199   7.8627   8.3792   9.1090

          k = 0.1251-0.5052 0.0000 ( 10760 PWs)   bands (ev):

    -2.8342  -2.7629  -2.7126  -2.6214  -2.5241  -2.4965  -2.3533  -2.2318
    -2.0782  -1.8379  -1.6900  -1.4584  -1.4043  -1.2598  -1.1133  -1.0303
    -0.7309  -0.6522  -0.5678  -0.3145  -0.2834  -0.1789  -0.1042  -0.0402
     0.0254   0.0414   0.2078   0.2574   0.3154   0.4403   2.8662   3.1899
     3.8000   4.7226   5.7713   6.4499   7.3199   7.8627   8.3792   9.1090

          k = 0.1251-0.3608 0.0000 ( 10818 PWs)   bands (ev):

    -2.6493  -2.5351  -2.4919  -2.4160  -2.3724  -2.3020  -2.1746  -1.9868
    -1.9695  -1.7609  -1.6491  -1.5047  -1.4371  -1.3454  -1.2462  -1.1930
    -1.0610  -0.9201  -0.8454  -0.7993  -0.6652  -0.6021  -0.4604  -0.3795
    -0.1735  -0.1371   0.0665   0.0906   0.1272   0.2724   0.7411   0.8757
     1.4907   2.6425   4.1179   5.8210   7.5060   9.2050   9.9096  10.4703

          k = 0.1251-0.2164 0.0000 ( 10863 PWs)   bands (ev):

    -3.1843  -2.8394  -2.3966  -2.3757  -2.3028  -2.1775  -2.0002  -1.9131
    -1.8737  -1.8339  -1.6552  -1.5648  -1.4768  -1.4656  -1.2765  -1.2752
    -1.2062  -1.1498  -1.0377  -0.9082  -0.8070  -0.7609  -0.7273  -0.6565
    -0.5906  -0.4133  -0.3709  -0.2510  -0.2338  -0.2300  -0.0070   0.1715
     0.2869   1.2505   2.6235   4.2708   5.5166   7.9983   8.4473   9.0634

          k = 0.2502-0.1441 0.0000 ( 10871 PWs)   bands (ev):

    -3.0132  -2.7592  -2.5938  -2.4933  -2.3719  -2.2149  -2.1460  -2.0194
    -1.8406  -1.7246  -1.5811  -1.3920  -1.2964  -1.2408  -1.2345  -1.0750
    -1.0459  -0.9474  -0.8254  -0.8235  -0.7494  -0.6888  -0.6241  -0.5726
    -0.5203  -0.4392  -0.3681  -0.3655  -0.2506  -0.1230   0.0873   0.2868
     0.3556   1.5120   2.9767   4.6670   6.0601   8.2820   8.8203   9.3524

          k = 0.2502 0.0003 0.0000 ( 10868 PWs)   bands (ev):

    -3.1843  -2.8394  -2.3966  -2.3757  -2.3028  -2.1775  -2.0003  -1.9131
    -1.8737  -1.8339  -1.6552  -1.5648  -1.4768  -1.4656  -1.2765  -1.2752
    -1.2062  -1.1497  -1.0377  -0.9083  -0.8070  -0.7609  -0.7273  -0.6565
    -0.5906  -0.4133  -0.3709  -0.2510  -0.2337  -0.2300  -0.0071   0.1714
     0.2869   1.2505   2.6235   4.2708   5.5166   7.9973   8.4552   8.9745

          k = 0.2502 0.1447 0.0000 ( 10860 PWs)   bands (ev):

    -3.0132  -2.7592  -2.5938  -2.4933  -2.3720  -2.2149  -2.1460  -2.0194
    -1.8406  -1.7246  -1.5811  -1.3920  -1.2964  -1.2408  -1.2345  -1.0750
    -1.0459  -0.9474  -0.8254  -0.8235  -0.7494  -0.6888  -0.6241  -0.5725
    -0.5203  -0.4391  -0.3680  -0.3655  -0.2506  -0.1230   0.0874   0.2868
     0.3556   1.5120   2.9767   4.6670   6.0601   8.2814   8.8267   9.3110

          k = 0.2502 0.2890 0.0000 ( 10819 PWs)   bands (ev):

    -2.6493  -2.5351  -2.4919  -2.4160  -2.3723  -2.3020  -2.1746  -1.9868
    -1.9694  -1.7610  -1.6492  -1.5048  -1.4371  -1.3454  -1.2462  -1.1930
    -1.0610  -0.9201  -0.8454  -0.7993  -0.6653  -0.6021  -0.4604  -0.3794
    -0.1735  -0.1371   0.0665   0.0906   0.1271   0.2724   0.7411   0.8757
     1.4907   2.6425   4.1179   5.8210   7.5060   9.2042   9.9272  10.3209

          k = 0.2502-0.7216 0.0000 ( 10755 PWs)   bands (ev):

    -2.5331  -2.5239  -2.3910  -2.3213  -2.2119  -2.1465  -2.0572  -1.9332
    -1.8983  -1.8660  -1.7140  -1.5892  -1.5333  -1.3721  -1.2229  -1.1022
    -1.0671  -0.9676  -0.9635  -0.7725  -0.7291  -0.5172  -0.4570  -0.4363
    -0.3029  -0.0800   0.1896   0.2909   0.3162   0.4402   2.7658   3.0777
     3.7732   4.8243   6.1622   7.7222   9.0806   9.1868   9.3488   9.6013

          k = 0.2502-0.5773 0.0000 ( 10783 PWs)   bands (ev):

    -2.5965  -2.3959  -2.3620  -2.2897  -2.2341  -2.1446  -2.0859  -2.0656
    -1.8831  -1.8319  -1.7691  -1.5551  -1.4511  -1.3222  -1.2270  -1.1620
    -1.0528  -0.8411  -0.8253  -0.7733  -0.6709  -0.4780  -0.3977  -0.3141
    -0.0463  -0.0324   0.0995   0.1485   0.2493   0.2839   5.4545   5.5105
     5.7772   6.1127   6.5549   7.0265   7.6445   8.2621   8.6697   8.9116

          k = 0.2502-0.4329 0.0000 ( 10756 PWs)   bands (ev):

    -2.5331  -2.5239  -2.3911  -2.3213  -2.2119  -2.1465  -2.0572  -1.9332
    -1.8983  -1.8660  -1.7141  -1.5892  -1.5333  -1.3722  -1.2230  -1.1022
    -1.0671  -0.9676  -0.9635  -0.7725  -0.7291  -0.5171  -0.4571  -0.4363
    -0.3029  -0.0800   0.1896   0.2909   0.3162   0.4402   2.7658   3.0777
     3.7732   4.8243   6.1622   7.7222   9.0806   9.1868   9.3488   9.6013

          k = 0.2502-0.2885 0.0000 ( 10818 PWs)   bands (ev):

    -2.6493  -2.5351  -2.4919  -2.4160  -2.3724  -2.3020  -2.1746  -1.9868
    -1.9695  -1.7609  -1.6491  -1.5047  -1.4371  -1.3454  -1.2462  -1.1930
    -1.0610  -0.9201  -0.8454  -0.7993  -0.6652  -0.6021  -0.4604  -0.3795
    -0.1735  -0.1371   0.0665   0.0906   0.1272   0.2724   0.7411   0.8757
     1.4907   2.6425   4.1179   5.8210   7.5060   9.2050   9.9096  10.4703

          k = 0.3754-0.2162 0.0000 ( 10791 PWs)   bands (ev):

    -2.8975  -2.8785  -2.7576  -2.7209  -2.6558  -2.4981  -2.4626  -2.3641
    -2.0351  -1.7029  -1.5365  -1.4685  -1.3695  -1.1474  -1.1326  -0.8675
    -0.7727  -0.6528  -0.3941  -0.3034  -0.1339  -0.1200   0.0190   0.0501
     0.0564   0.0965   0.1616   0.1685   0.2102   0.3443   0.9143   1.2728
     1.9204   3.1208   4.6213   6.2997   7.9568   8.4362   8.9405   9.6017

          k = 0.3754-0.0718 0.0000 ( 10820 PWs)   bands (ev):

    -2.6493  -2.5351  -2.4919  -2.4160  -2.3724  -2.3020  -2.1746  -1.9868
    -1.9695  -1.7609  -1.6492  -1.5048  -1.4371  -1.3455  -1.2463  -1.1930
    -1.0610  -0.9201  -0.8454  -0.7993  -0.6652  -0.6021  -0.4604  -0.3795
    -0.1735  -0.1371   0.0666   0.0907   0.1271   0.2724   0.7411   0.8757
     1.4907   2.6425   4.1179   5.8210   7.5060   9.2045   9.9194  10.3819

          k = 0.3754 0.0726 0.0000 ( 10819 PWs)   bands (ev):

    -2.6493  -2.5351  -2.4919  -2.4160  -2.3723  -2.3020  -2.1746  -1.9868
    -1.9694  -1.7610  -1.6492  -1.5048  -1.4371  -1.3454  -1.2462  -1.1930
    -1.0610  -0.9201  -0.8454  -0.7993  -0.6653  -0.6021  -0.4604  -0.3794
    -0.1735  -0.1371   0.0665   0.0906   0.1271   0.2724   0.7411   0.8757
     1.4907   2.6425   4.1179   5.8210   7.5060   9.2042   9.9272  10.3209

          k = 0.3754 0.2170 0.0000 ( 10794 PWs)   bands (ev):

    -2.8975  -2.8785  -2.7576  -2.7210  -2.6558  -2.4981  -2.4626  -2.3641
    -2.0351  -1.7028  -1.5364  -1.4686  -1.3695  -1.1474  -1.1326  -0.8675
    -0.7727  -0.6527  -0.3941  -0.3035  -0.1339  -0.1200   0.0190   0.0501
     0.0564   0.0965   0.1616   0.1685   0.2103   0.3443   0.9143   1.2728
     1.9204   3.1208   4.6213   6.2997   7.9568   8.4362   8.9405   9.6015

          k = 0.3754-0.7937 0.0000 ( 10771 PWs)   bands (ev):

    -2.8342  -2.7628  -2.7127  -2.6214  -2.5241  -2.4965  -2.3534  -2.2318
    -2.0782  -1.8379  -1.6900  -1.4583  -1.4044  -1.2598  -1.1133  -1.0303
    -0.7308  -0.6522  -0.5678  -0.3145  -0.2835  -0.1789  -0.1042  -0.0403
     0.0254   0.0413   0.2078   0.2574   0.3154   0.4402   2.8662   3.1899
     3.8000   4.7226   5.7713   6.4499   7.3199   7.8627   8.3792   9.1090

          k = 0.3754-0.6493 0.0000 ( 10768 PWs)   bands (ev):

    -2.5965  -2.3959  -2.3619  -2.2897  -2.2340  -2.1446  -2.0858  -2.0656
    -1.8831  -1.8319  -1.7691  -1.5551  -1.4511  -1.3222  -1.2270  -1.1620
    -1.0528  -0.8411  -0.8253  -0.7733  -0.6709  -0.4779  -0.3976  -0.3141
    -0.0463  -0.0323   0.0996   0.1485   0.2494   0.2840   5.4545   5.5106
     5.7772   6.1127   6.5549   7.0265   7.6445   8.2621   8.6697   8.9116

          k = 0.3754-0.5049 0.0000 ( 10783 PWs)   bands (ev):

    -2.5965  -2.3959  -2.3620  -2.2897  -2.2341  -2.1446  -2.0859  -2.0656
    -1.8831  -1.8319  -1.7691  -1.5551  -1.4511  -1.3222  -1.2270  -1.1620
    -1.0528  -0.8411  -0.8253  -0.7733  -0.6709  -0.4780  -0.3977  -0.3141
    -0.0463  -0.0324   0.0995   0.1485   0.2493   0.2839   5.4545   5.5105
     5.7772   6.1127   6.5549   7.0265   7.6445   8.2621   8.6697   8.9116

          k = 0.3754-0.3605 0.0000 ( 10760 PWs)   bands (ev):

    -2.8342  -2.7629  -2.7126  -2.6214  -2.5241  -2.4965  -2.3533  -2.2318
    -2.0782  -1.8379  -1.6900  -1.4584  -1.4043  -1.2598  -1.1133  -1.0303
    -0.7309  -0.6522  -0.5678  -0.3145  -0.2834  -0.1789  -0.1042  -0.0402
     0.0254   0.0414   0.2078   0.2574   0.3154   0.4403   2.8662   3.1899
     3.8000   4.7226   5.7713   6.4499   7.3199   7.8627   8.3792   9.1090

          k =-0.5005 0.2882 0.0000 ( 10736 PWs)   bands (ev):

    -3.0353  -2.9787  -2.9006  -2.8582  -2.7397  -2.6353  -2.5938  -2.5026
    -2.1479  -1.7392  -1.6628  -1.5635  -1.4393  -1.2017  -0.9127  -0.7973
    -0.6922  -0.4125  -0.3696  -0.1060  -0.0293   0.1057   0.1971   0.2856
     0.2974   0.3525   0.3633   0.4232   0.4430   0.4755   3.1081   3.6470
     4.1316   4.4619   4.6868   4.8165   6.9622   7.4147   7.9083   8.5351

          k =-0.5005 0.4326 0.0000 ( 10762 PWs)   bands (ev):

    -2.8342  -2.7629  -2.7127  -2.6214  -2.5241  -2.4965  -2.3533  -2.2318
    -2.0782  -1.8379  -1.6900  -1.4583  -1.4043  -1.2598  -1.1133  -1.0303
    -0.7309  -0.6522  -0.5678  -0.3145  -0.2834  -0.1789  -0.1042  -0.0402
     0.0254   0.0414   0.2078   0.2574   0.3154   0.4402   2.8662   3.1899
     3.8000   4.7226   5.7713   6.4499   7.3199   7.8627   8.3792   9.1090

          k =-0.5005 0.5770 0.0000 ( 10755 PWs)   bands (ev):

    -2.5331  -2.5239  -2.3910  -2.3213  -2.2119  -2.1465  -2.0572  -1.9332
    -1.8983  -1.8660  -1.7140  -1.5892  -1.5333  -1.3721  -1.2229  -1.1022
    -1.0671  -0.9676  -0.9635  -0.7725  -0.7291  -0.5172  -0.4570  -0.4363
    -0.3029  -0.0800   0.1896   0.2909   0.3162   0.4402   2.7658   3.0777
     3.7732   4.8243   6.1622   7.7222   9.0806   9.1869   9.3488   9.6013

          k =-0.5005 0.7214 0.0000 ( 10771 PWs)   bands (ev):

    -2.8342  -2.7628  -2.7127  -2.6214  -2.5241  -2.4965  -2.3534  -2.2318
    -2.0782  -1.8379  -1.6900  -1.4584  -1.4044  -1.2598  -1.1133  -1.0303
    -0.7308  -0.6522  -0.5678  -0.3145  -0.2835  -0.1789  -0.1042  -0.0403
     0.0254   0.0413   0.2078   0.2574   0.3154   0.4402   2.8662   3.1899
     3.8000   4.7226   5.7713   6.4499   7.3199   7.8627   8.3792   9.1090

          k =-0.5005-0.2893 0.0000 ( 10756 PWs)   bands (ev):

    -3.0354  -2.9787  -2.9006  -2.8583  -2.7397  -2.6353  -2.5938  -2.5026
    -2.1480  -1.7393  -1.6627  -1.5634  -1.4392  -1.2018  -0.9129  -0.7974
    -0.6923  -0.4126  -0.3696  -0.1060  -0.0293   0.1056   0.1971   0.2856
     0.2974   0.3524   0.3633   0.4231   0.4431   0.4755   3.1081   3.6469
     4.1316   4.4619   4.6868   4.8165   6.9622   7.4147   7.9083   8.5351

     the Fermi energy is     3.1243 ev

!    total energy              =    -505.74957078 Ry
     estimated scf accuracy    <       0.00000083 Ry
     smearing contrib. (-TS)   =      -0.00238205 Ry
     internal energy E=F+TS    =    -505.74718874 Ry

     The total energy is F=E-TS. E is the sum of the following terms:
     one-electron contribution =   -6606.61239453 Ry
     hartree contribution      =    3353.80801680 Ry
     xc contribution           =    -133.97794847 Ry
     ewald contribution        =    2881.21170391 Ry
     DFT-D3 Dispersion         =      -0.17656645 Ry

     convergence has been achieved in   5 iterations

     negative rho (up, down):  1.180E-05 0.000E+00

     Forces acting on atoms (cartesian axes, Ry/au):

     atom    1 type  1   force =     0.00010026    0.00005783   -0.00229014
     atom    2 type  1   force =    -0.00034185   -0.00019703    0.00781349
     atom    3 type  1   force =     0.00006594    0.00003798   -0.00150282
     atom    4 type  1   force =    -0.00006067   -0.00003396    0.00135999
     atom    5 type  1   force =     0.00029990    0.00017288   -0.00685500
     atom    6 type  1   force =    -0.00006359   -0.00003770    0.00147448
     The non-local contrib.  to forces
     atom    1 type  1   force =     0.00225334    0.00130166   -0.05152238
     atom    2 type  1   force =     0.00193605    0.00111917   -0.04427610
     atom    3 type  1   force =    -0.00011937   -0.00006925    0.00273244
     atom    4 type  1   force =     0.00011686    0.00006830   -0.00270446
     atom    5 type  1   force =    -0.00197054   -0.00114014    0.04507679
     atom    6 type  1   force =    -0.00222218   -0.00128599    0.05084722
     The ionic contribution  to forces
     atom    1 type  1   force =     7.04132103    4.07049063 -161.02933139
     atom    2 type  1   force =     4.23691172    2.44930027  -96.89475295
     atom    3 type  1   force =     1.41257850    0.81659216  -32.30453067
     atom    4 type  1   force =    -1.41199430   -0.81625396   32.29116761
     atom    5 type  1   force =    -4.23931244   -2.45068877   96.94965831
     atom    6 type  1   force =    -7.03950451   -4.06944033  160.98778910
     The local contribution  to forces
     atom    1 type  1   force =    -7.04298125   -4.07145050  161.06729192
     atom    2 type  1   force =    -4.23892033   -2.45046206   96.94070586
     atom    3 type  1   force =    -1.41225819   -0.81640661   32.29720498
     atom    4 type  1   force =     1.41175716    0.81611643  -32.28572164
     atom    5 type  1   force =     4.24126391    2.45181782  -96.99430485
     atom    6 type  1   force =     7.04109073    4.07035750 -161.02406454
     The core correction contribution to forces
     atom    1 type  1   force =    -0.00024916   -0.00014404    0.00569777
     atom    2 type  1   force =     0.00000816    0.00000467   -0.00018531
     atom    3 type  1   force =     0.00000683    0.00000393   -0.00015589
     atom    4 type  1   force =    -0.00000932   -0.00000542    0.00021457
     atom    5 type  1   force =    -0.00000167   -0.00000091    0.00003623
     atom    6 type  1   force =     0.00024517    0.00014173   -0.00560646
     The Hubbard contrib.    to forces
     atom    1 type  1   force =     0.00000000    0.00000000    0.00000000
     atom    2 type  1   force =     0.00000000    0.00000000    0.00000000
     atom    3 type  1   force =     0.00000000    0.00000000    0.00000000
     atom    4 type  1   force =     0.00000000    0.00000000    0.00000000
     atom    5 type  1   force =     0.00000000    0.00000000    0.00000000
     atom    6 type  1   force =     0.00000000    0.00000000    0.00000000
     The SCF correction term to forces
     atom    1 type  1   force =    -0.00000000   -0.00000000    0.00000000
     atom    2 type  1   force =    -0.00000000   -0.00000000    0.00000000
     atom    3 type  1   force =    -0.00000000   -0.00000000    0.00000000
     atom    4 type  1   force =     0.00000000    0.00000000   -0.00000000
     atom    5 type  1   force =     0.00016109    0.00009211   -0.00367092
     atom    6 type  1   force =     0.00010941    0.00006297   -0.00250821

     DFT-D3 dispersion contribution to forces:
     atom    1 type  1   force =    -0.00021823   -0.00012615    0.00499067
     atom    2 type  1   force =    -0.00015683   -0.00009066    0.00358659
     atom    3 type  1   force =    -0.00001783   -0.00001031    0.00040768
     atom    4 type  1   force =     0.00001692    0.00000978   -0.00038684
     atom    5 type  1   force =     0.00015886    0.00009184   -0.00363302
     atom    6 type  1   force =     0.00021711    0.00012551   -0.00496508

     Total force =     0.007021     Total SCF correction =     0.004452
     SCF correction compared to forces is large: reduce conv_thr to get better values


     Computing stress (Cartesian axis) and pressure


     negative rho (up, down):  1.180E-05 0.000E+00
          total   stress  (Ry/bohr**3)                   (kbar)     P=      -16.30
  -0.00012240   0.00000004  -0.00000151          -18.01        0.01       -0.22
   0.00000004  -0.00012244  -0.00000088            0.01      -18.01       -0.13
  -0.00000151  -0.00000088  -0.00008768           -0.22       -0.13      -12.90

     Energy error            =      5.3E-05 Ry
     Gradient error          =      6.9E-03 Ry/Bohr

     number of scf cycles    =   2
     number of bfgs steps    =   1

     energy             old  =    -505.7495175781 Ry
     energy             new  =    -505.7495707837 Ry

     CASE: energy            _new < energy            _old


     WARNING: bfgs curvature condition failed, Theta= 0.868
     new trust radius        =       0.0078112977 bohr
     new conv_thr            =       0.0000000100 Ry


ATOMIC_POSITIONS (angstrom)
Ag            1.9495966967        0.5683247470       10.1267839913    0   0   0
Ag            1.8442630363        2.1835635018       12.5356798267    0   0   0
Ag            3.1914251139        1.2862086380       14.9445756621    0   0   0
Ag            1.6391395924        0.3888537743       17.2266875061    0   0   0
Ag            1.5341502993        2.0042925807       19.6277020543
Ag            2.8808613418        1.1066763266       22.0469189653



     Writing config-only to output data dir ./Ag_111/Ag_111.save/
     NEW-OLD atomic charge density approx. for the potential

     negative rho (up, down):  1.194E-05 0.000E+00

     total cpu time spent up to now is       18.7 secs

     per-process dynamical memory:   184.9 Mb

     Self-consistent Calculation

     iteration #  1     ecut=    55.00 Ry     beta= 0.30
     Davidson diagonalization with overlap
     ethr =  1.00E-06,  avg # of iterations =  3.0

     negative rho (up, down):  1.192E-05 0.000E+00

     total cpu time spent up to now is       19.3 secs

     total energy              =    -505.74946707 Ry
     estimated scf accuracy    <       0.00032936 Ry

     iteration #  2     ecut=    55.00 Ry     beta= 0.30
     Davidson diagonalization with overlap
     ethr =  4.99E-07,  avg # of iterations =  5.2

     negative rho (up, down):  1.190E-05 0.000E+00

     total cpu time spent up to now is       19.8 secs

     total energy              =    -505.74902836 Ry
     estimated scf accuracy    <       0.01707891 Ry

     iteration #  3     ecut=    55.00 Ry     beta= 0.30
     Davidson diagonalization with overlap
     ethr =  4.99E-07,  avg # of iterations =  4.2

     negative rho (up, down):  1.191E-05 0.000E+00

     total cpu time spent up to now is       20.2 secs

     total energy              =    -505.74945561 Ry
     estimated scf accuracy    <       0.00911241 Ry

     iteration #  4     ecut=    55.00 Ry     beta= 0.30
     Davidson diagonalization with overlap
     ethr =  4.99E-07,  avg # of iterations =  1.9

     negative rho (up, down):  1.190E-05 0.000E+00

     total cpu time spent up to now is       20.6 secs

     total energy              =    -505.74961928 Ry
     estimated scf accuracy    <       0.00000631 Ry

     iteration #  5     ecut=    55.00 Ry     beta= 0.30
     Davidson diagonalization with overlap
     ethr =  9.56E-09,  avg # of iterations =  2.5

     negative rho (up, down):  1.189E-05 0.000E+00

     total cpu time spent up to now is       20.9 secs

     total energy              =    -505.74962008 Ry
     estimated scf accuracy    <       0.00000054 Ry

     iteration #  6     ecut=    55.00 Ry     beta= 0.30
     Davidson diagonalization with overlap
     ethr =  8.11E-10,  avg # of iterations =  4.3

     negative rho (up, down):  1.186E-05 0.000E+00

     total cpu time spent up to now is       21.4 secs

     total energy              =    -505.74962021 Ry
     estimated scf accuracy    <       0.00000011 Ry

     iteration #  7     ecut=    55.00 Ry     beta= 0.30
     Davidson diagonalization with overlap
     ethr =  1.73E-10,  avg # of iterations =  2.5

     negative rho (up, down):  1.186E-05 0.000E+00

     total cpu time spent up to now is       21.8 secs

     total energy              =    -505.74962023 Ry
     estimated scf accuracy    <       0.00000004 Ry

     iteration #  8     ecut=    55.00 Ry     beta= 0.30
     Davidson diagonalization with overlap
     ethr =  6.10E-11,  avg # of iterations =  1.6

     negative rho (up, down):  1.185E-05 0.000E+00

     total cpu time spent up to now is       22.1 secs

     End of self-consistent calculation

          k = 0.0000 0.0000 0.0000 ( 10919 PWs)   bands (ev):

    -4.3037  -3.8317  -3.2033  -3.0412  -2.9225  -2.8656  -1.5712  -1.5298
    -1.5045  -1.5045  -1.4774  -1.4773  -1.4089  -1.4089  -1.3774  -1.3627
    -1.3627  -1.2641  -1.2640  -1.2328  -1.2328  -0.5568  -0.5149  -0.5149
    -0.5012  -0.5011  -0.3826  -0.3826  -0.1523  -0.1523   0.0583   0.0584
     0.2338   0.2338   0.8826   2.6395   3.3009   7.1558   7.3370   7.9700

          k = 0.0000 0.1444 0.0000 ( 10876 PWs)   bands (ev):

    -3.8930  -3.4414  -2.8500  -2.7867  -2.6455  -2.5533  -1.7918  -1.7045
    -1.6373  -1.5719  -1.5400  -1.4512  -1.3356  -1.3354  -1.2932  -1.2731
    -1.2251  -1.2070  -1.1823  -1.1082  -1.0677  -1.0296  -0.7323  -0.6683
    -0.6004  -0.5065  -0.4883  -0.3610  -0.3521  -0.1467  -0.1090   0.0687
     0.2511   0.5171   1.7074   3.2893   4.1797   7.4329   7.7073   8.3194

          k = 0.0000 0.2888 0.0000 ( 10871 PWs)   bands (ev):

    -3.0155  -2.7594  -2.5957  -2.4927  -2.3725  -2.2145  -2.1457  -2.0197
    -1.8397  -1.7250  -1.5812  -1.3924  -1.2974  -1.2415  -1.2369  -1.0754
    -1.0457  -0.9467  -0.8256  -0.8233  -0.7494  -0.6891  -0.6243  -0.5733
    -0.5202  -0.4388  -0.3690  -0.3655  -0.2511  -0.1244   0.0863   0.2861
     0.3550   1.5104   2.9754   4.6665   6.0594   8.2820   8.8204   9.3526

          k = 0.0000 0.4332 0.0000 ( 10791 PWs)   bands (ev):

    -2.8997  -2.8803  -2.7593  -2.7218  -2.6560  -2.4972  -2.4611  -2.3634
    -2.0333  -1.7035  -1.5366  -1.4694  -1.3719  -1.1470  -1.1332  -0.8689
    -0.7706  -0.6527  -0.3949  -0.3042  -0.1337  -0.1206   0.0175   0.0496
     0.0551   0.0958   0.1609   0.1682   0.2103   0.3436   0.9132   1.2728
     1.9214   3.1191   4.6198   6.2995   7.9558   8.4350   8.9409   9.6022

          k = 0.0000-0.5775 0.0000 ( 10736 PWs)   bands (ev):

    -3.0374  -2.9807  -2.9027  -2.8584  -2.7403  -2.6351  -2.5919  -2.5015
    -2.1458  -1.7396  -1.6633  -1.5642  -1.4417  -1.2012  -0.9134  -0.7950
    -0.6938  -0.4126  -0.3708  -0.1064  -0.0303   0.1051   0.1963   0.2846
     0.2965   0.3517   0.3617   0.4231   0.4442   0.4749   3.1066   3.6470
     4.1316   4.4612   4.6866   4.8160   6.9615   7.4135   7.9079   8.5359

          k = 0.1251-0.0721 0.0000 ( 10876 PWs)   bands (ev):

    -3.8930  -3.4414  -2.8500  -2.7867  -2.6455  -2.5533  -1.7918  -1.7045
    -1.6373  -1.5719  -1.5400  -1.4512  -1.3356  -1.3354  -1.2932  -1.2731
    -1.2251  -1.2070  -1.1823  -1.1082  -1.0677  -1.0296  -0.7323  -0.6683
    -0.6004  -0.5065  -0.4883  -0.3610  -0.3521  -0.1467  -0.1090   0.0687
     0.2511   0.5171   1.7074   3.2893   4.1797   7.4329   7.7073   8.3194

          k = 0.1251 0.0723 0.0000 ( 10875 PWs)   bands (ev):

    -3.8930  -3.4414  -2.8500  -2.7867  -2.6455  -2.5533  -1.7918  -1.7045
    -1.6373  -1.5719  -1.5400  -1.4512  -1.3356  -1.3353  -1.2932  -1.2730
    -1.2252  -1.2070  -1.1824  -1.1082  -1.0678  -1.0296  -0.7322  -0.6683
    -0.6003  -0.5066  -0.4883  -0.3610  -0.3521  -0.1467  -0.1090   0.0687
     0.2511   0.5171   1.7074   3.2893   4.1797   7.4322   7.7099   8.2963

          k = 0.1251 0.2167 0.0000 ( 10868 PWs)   bands (ev):

    -3.1867  -2.8392  -2.3988  -2.3751  -2.3027  -2.1767  -2.0013  -1.9126
    -1.8744  -1.8352  -1.6554  -1.5639  -1.4764  -1.4654  -1.2776  -1.2757
    -1.2073  -1.1505  -1.0378  -0.9086  -0.8066  -0.7618  -0.7259  -0.6573
    -0.5913  -0.4130  -0.3709  -0.2510  -0.2349  -0.2317  -0.0082   0.1706
     0.2863   1.2492   2.6222   4.2702   5.5159   7.9974   8.4553   8.9749

          k = 0.1251 0.3611 0.0000 ( 10820 PWs)   bands (ev):

    -2.6516  -2.5375  -2.4936  -2.4158  -2.3726  -2.3020  -2.1732  -1.9861
    -1.9683  -1.7614  -1.6500  -1.5052  -1.4384  -1.3460  -1.2465  -1.1933
    -1.0607  -0.9197  -0.8440  -0.7993  -0.6654  -0.6030  -0.4621  -0.3799
    -0.1739  -0.1383   0.0654   0.0907   0.1262   0.2716   0.7399   0.8757
     1.4913   2.6407   4.1164   5.8209   7.5053   9.2044   9.9193  10.3822

          k = 0.1251-0.6496 0.0000 ( 10762 PWs)   bands (ev):

    -2.8365  -2.7650  -2.7146  -2.6211  -2.5245  -2.4962  -2.3516  -2.2309
    -2.0763  -1.8384  -1.6918  -1.4585  -1.4046  -1.2607  -1.1138  -1.0292
    -0.7316  -0.6520  -0.5689  -0.3142  -0.2840  -0.1790  -0.1049  -0.0411
     0.0248   0.0401   0.2075   0.2564   0.3150   0.4392   2.8647   3.1899
     3.8007   4.7215   5.7703   6.4488   7.3195   7.8623   8.3792   9.1095

          k = 0.1251-0.5052 0.0000 ( 10760 PWs)   bands (ev):

    -2.8365  -2.7650  -2.7145  -2.6211  -2.5245  -2.4962  -2.3516  -2.2309
    -2.0763  -1.8385  -1.6918  -1.4586  -1.4046  -1.2607  -1.1137  -1.0292
    -0.7316  -0.6520  -0.5689  -0.3142  -0.2840  -0.1790  -0.1049  -0.0411
     0.0248   0.0401   0.2075   0.2564   0.3150   0.4392   2.8647   3.1899
     3.8007   4.7215   5.7703   6.4488   7.3195   7.8623   8.3792   9.1095

          k = 0.1251-0.3608 0.0000 ( 10818 PWs)   bands (ev):

    -2.6516  -2.5375  -2.4936  -2.4158  -2.3726  -2.3020  -2.1732  -1.9861
    -1.9683  -1.7614  -1.6500  -1.5051  -1.4384  -1.3459  -1.2465  -1.1933
    -1.0607  -0.9197  -0.8440  -0.7993  -0.6654  -0.6030  -0.4621  -0.3799
    -0.1739  -0.1383   0.0654   0.0907   0.1262   0.2716   0.7399   0.8757
     1.4913   2.6407   4.1164   5.8209   7.5053   9.2049   9.9097  10.4755

          k = 0.1251-0.2164 0.0000 ( 10863 PWs)   bands (ev):

    -3.1867  -2.8392  -2.3988  -2.3751  -2.3027  -2.1767  -2.0012  -1.9126
    -1.8744  -1.8352  -1.6554  -1.5639  -1.4764  -1.4654  -1.2776  -1.2757
    -1.2073  -1.1505  -1.0378  -0.9085  -0.8066  -0.7618  -0.7258  -0.6572
    -0.5912  -0.4130  -0.3709  -0.2510  -0.2349  -0.2317  -0.0082   0.1706
     0.2863   1.2492   2.6222   4.2702   5.5159   7.9984   8.4474   9.0633

          k = 0.2502-0.1441 0.0000 ( 10871 PWs)   bands (ev):

    -3.0155  -2.7594  -2.5957  -2.4927  -2.3725  -2.2145  -2.1457  -2.0197
    -1.8397  -1.7250  -1.5812  -1.3924  -1.2974  -1.2415  -1.2369  -1.0754
    -1.0457  -0.9467  -0.8256  -0.8233  -0.7494  -0.6891  -0.6243  -0.5733
    -0.5202  -0.4388  -0.3690  -0.3655  -0.2511  -0.1244   0.0863   0.2861
     0.3550   1.5104   2.9754   4.6665   6.0594   8.2820   8.8203   9.3527

          k = 0.2502 0.0003 0.0000 ( 10868 PWs)   bands (ev):

    -3.1867  -2.8392  -2.3988  -2.3751  -2.3027  -2.1767  -2.0013  -1.9126
    -1.8744  -1.8352  -1.6554  -1.5639  -1.4764  -1.4654  -1.2776  -1.2757
    -1.2073  -1.1505  -1.0378  -0.9086  -0.8066  -0.7618  -0.7259  -0.6573
    -0.5913  -0.4130  -0.3709  -0.2510  -0.2349  -0.2317  -0.0082   0.1706
     0.2863   1.2492   2.6222   4.2702   5.5159   7.9974   8.4553   8.9749

          k = 0.2502 0.1447 0.0000 ( 10860 PWs)   bands (ev):

    -3.0155  -2.7594  -2.5957  -2.4927  -2.3726  -2.2145  -2.1457  -2.0197
    -1.8397  -1.7249  -1.5812  -1.3924  -1.2974  -1.2414  -1.2369  -1.0754
    -1.0457  -0.9468  -0.8255  -0.8233  -0.7493  -0.6891  -0.6242  -0.5732
    -0.5201  -0.4387  -0.3690  -0.3655  -0.2511  -0.1244   0.0864   0.2861
     0.3550   1.5104   2.9754   4.6665   6.0594   8.2814   8.8267   9.3113

          k = 0.2502 0.2890 0.0000 ( 10819 PWs)   bands (ev):

    -2.6516  -2.5374  -2.4936  -2.4158  -2.3726  -2.3019  -2.1732  -1.9861
    -1.9683  -1.7614  -1.6500  -1.5051  -1.4384  -1.3459  -1.2465  -1.1933
    -1.0607  -0.9197  -0.8440  -0.7993  -0.6654  -0.6030  -0.4621  -0.3799
    -0.1739  -0.1384   0.0654   0.0906   0.1262   0.2716   0.7398   0.8757
     1.4913   2.6407   4.1164   5.8209   7.5053   9.2040   9.9272  10.3212

          k = 0.2502-0.7216 0.0000 ( 10755 PWs)   bands (ev):

    -2.5353  -2.5263  -2.3925  -2.3204  -2.2115  -2.1477  -2.0571  -1.9329
    -1.8979  -1.8645  -1.7146  -1.5896  -1.5339  -1.3725  -1.2236  -1.1022
    -1.0663  -0.9679  -0.9608  -0.7729  -0.7297  -0.5184  -0.4576  -0.4380
    -0.3045  -0.0806   0.1893   0.2902   0.3153   0.4391   2.7643   3.0778
     3.7739   4.8229   6.1609   7.7221   9.0793   9.1852   9.3480   9.6015

          k = 0.2502-0.5773 0.0000 ( 10783 PWs)   bands (ev):

    -2.5989  -2.3977  -2.3627  -2.2906  -2.2363  -2.1454  -2.0843  -2.0629
    -1.8845  -1.8307  -1.7690  -1.5546  -1.4522  -1.3208  -1.2262  -1.1640
    -1.0530  -0.8415  -0.8239  -0.7727  -0.6711  -0.4800  -0.3987  -0.3152
    -0.0473  -0.0331   0.0988   0.1477   0.2486   0.2829   5.4525   5.5093
     5.7771   6.1132   6.5556   7.0268   7.6434   8.2606   8.6687   8.9108

          k = 0.2502-0.4329 0.0000 ( 10756 PWs)   bands (ev):

    -2.5354  -2.5263  -2.3926  -2.3204  -2.2115  -2.1477  -2.0571  -1.9329
    -1.8979  -1.8645  -1.7146  -1.5896  -1.5339  -1.3726  -1.2237  -1.1021
    -1.0663  -0.9679  -0.9608  -0.7729  -0.7297  -0.5183  -0.4576  -0.4380
    -0.3045  -0.0805   0.1893   0.2902   0.3153   0.4391   2.7643   3.0778
     3.7739   4.8229   6.1609   7.7221   9.0793   9.1854   9.3480   9.6025

          k = 0.2502-0.2885 0.0000 ( 10818 PWs)   bands (ev):

    -2.6516  -2.5375  -2.4936  -2.4158  -2.3726  -2.3020  -2.1732  -1.9861
    -1.9683  -1.7614  -1.6500  -1.5051  -1.4384  -1.3459  -1.2465  -1.1933
    -1.0607  -0.9197  -0.8440  -0.7993  -0.6654  -0.6030  -0.4621  -0.3799
    -0.1739  -0.1383   0.0654   0.0907   0.1262   0.2716   0.7399   0.8757
     1.4913   2.6407   4.1164   5.8209   7.5053   9.2049   9.9097  10.4756

          k = 0.3754-0.2162 0.0000 ( 10791 PWs)   bands (ev):

    -2.8997  -2.8803  -2.7593  -2.7218  -2.6560  -2.4972  -2.4611  -2.3634
    -2.0333  -1.7035  -1.5366  -1.4694  -1.3719  -1.1470  -1.1332  -0.8689
    -0.7706  -0.6527  -0.3949  -0.3042  -0.1337  -0.1206   0.0175   0.0496
     0.0551   0.0958   0.1609   0.1682   0.2103   0.3436   0.9132   1.2728
     1.9214   3.1191   4.6198   6.2995   7.9558   8.4350   8.9408   9.6022

          k = 0.3754-0.0718 0.0000 ( 10820 PWs)   bands (ev):

    -2.6516  -2.5375  -2.4936  -2.4158  -2.3726  -2.3020  -2.1732  -1.9861
    -1.9683  -1.7614  -1.6500  -1.5052  -1.4384  -1.3460  -1.2465  -1.1933
    -1.0607  -0.9197  -0.8440  -0.7993  -0.6654  -0.6030  -0.4621  -0.3799
    -0.1739  -0.1383   0.0654   0.0907   0.1262   0.2716   0.7399   0.8757
     1.4913   2.6407   4.1164   5.8209   7.5053   9.2043   9.9193  10.3822

          k = 0.3754 0.0726 0.0000 ( 10819 PWs)   bands (ev):

    -2.6516  -2.5374  -2.4936  -2.4158  -2.3726  -2.3019  -2.1732  -1.9861
    -1.9683  -1.7614  -1.6500  -1.5051  -1.4384  -1.3459  -1.2465  -1.1933
    -1.0607  -0.9197  -0.8440  -0.7993  -0.6654  -0.6030  -0.4621  -0.3799
    -0.1739  -0.1384   0.0654   0.0906   0.1262   0.2716   0.7398   0.8757
     1.4913   2.6407   4.1164   5.8209   7.5053   9.2040   9.9272  10.3222

          k = 0.3754 0.2170 0.0000 ( 10794 PWs)   bands (ev):

    -2.8997  -2.8803  -2.7594  -2.7218  -2.6560  -2.4973  -2.4611  -2.3635
    -2.0333  -1.7035  -1.5366  -1.4695  -1.3719  -1.1469  -1.1332  -0.8689
    -0.7706  -0.6526  -0.3949  -0.3043  -0.1337  -0.1206   0.0175   0.0496
     0.0551   0.0959   0.1609   0.1683   0.2103   0.3436   0.9131   1.2728
     1.9214   3.1191   4.6198   6.2996   7.9558   8.4350   8.9408   9.6020

          k = 0.3754-0.7937 0.0000 ( 10771 PWs)   bands (ev):

    -2.8365  -2.7650  -2.7146  -2.6212  -2.5245  -2.4962  -2.3517  -2.2309
    -2.0764  -1.8385  -1.6918  -1.4585  -1.4047  -1.2607  -1.1138  -1.0292
    -0.7316  -0.6519  -0.5690  -0.3142  -0.2840  -0.1790  -0.1049  -0.0412
     0.0248   0.0400   0.2075   0.2564   0.3150   0.4392   2.8647   3.1899
     3.8007   4.7215   5.7703   6.4488   7.3195   7.8623   8.3792   9.1095

          k = 0.3754-0.6493 0.0000 ( 10768 PWs)   bands (ev):

    -2.5989  -2.3977  -2.3627  -2.2905  -2.2363  -2.1454  -2.0843  -2.0629
    -1.8844  -1.8306  -1.7690  -1.5546  -1.4522  -1.3208  -1.2262  -1.1640
    -1.0530  -0.8415  -0.8240  -0.7727  -0.6711  -0.4800  -0.3985  -0.3152
    -0.0472  -0.0331   0.0989   0.1477   0.2486   0.2829   5.4525   5.5093
     5.7772   6.1132   6.5556   7.0268   7.6434   8.2606   8.6685   8.9106

          k = 0.3754-0.5049 0.0000 ( 10783 PWs)   bands (ev):

    -2.5989  -2.3977  -2.3627  -2.2906  -2.2363  -2.1454  -2.0843  -2.0629
    -1.8845  -1.8307  -1.7690  -1.5546  -1.4522  -1.3208  -1.2262  -1.1640
    -1.0530  -0.8415  -0.8239  -0.7727  -0.6711  -0.4800  -0.3987  -0.3152
    -0.0473  -0.0331   0.0988   0.1477   0.2486   0.2829   5.4525   5.5093
     5.7771   6.1132   6.5556   7.0268   7.6434   8.2606   8.6685   8.9107

          k = 0.3754-0.3605 0.0000 ( 10760 PWs)   bands (ev):

    -2.8365  -2.7650  -2.7145  -2.6211  -2.5245  -2.4962  -2.3516  -2.2309
    -2.0763  -1.8385  -1.6918  -1.4586  -1.4046  -1.2607  -1.1137  -1.0292
    -0.7316  -0.6520  -0.5689  -0.3142  -0.2840  -0.1790  -0.1049  -0.0411
     0.0248   0.0401   0.2075   0.2564   0.3150   0.4392   2.8647   3.1899
     3.8007   4.7215   5.7703   6.4488   7.3195   7.8623   8.3792   9.1095

          k =-0.5005 0.2882 0.0000 ( 10736 PWs)   bands (ev):

    -3.0374  -2.9807  -2.9027  -2.8584  -2.7403  -2.6351  -2.5919  -2.5015
    -2.1458  -1.7396  -1.6633  -1.5642  -1.4417  -1.2012  -0.9134  -0.7950
    -0.6938  -0.4126  -0.3708  -0.1064  -0.0303   0.1051   0.1963   0.2846
     0.2965   0.3517   0.3617   0.4231   0.4442   0.4749   3.1066   3.6470
     4.1316   4.4612   4.6866   4.8160   6.9615   7.4135   7.9079   8.5359

          k =-0.5005 0.4326 0.0000 ( 10762 PWs)   bands (ev):

    -2.8365  -2.7650  -2.7146  -2.6211  -2.5245  -2.4962  -2.3516  -2.2309
    -2.0763  -1.8384  -1.6918  -1.4585  -1.4046  -1.2607  -1.1138  -1.0292
    -0.7316  -0.6520  -0.5689  -0.3142  -0.2840  -0.1790  -0.1049  -0.0411
     0.0248   0.0401   0.2075   0.2564   0.3150   0.4392   2.8647   3.1899
     3.8007   4.7215   5.7703   6.4488   7.3195   7.8623   8.3792   9.1095

          k =-0.5005 0.5770 0.0000 ( 10755 PWs)   bands (ev):

    -2.5353  -2.5263  -2.3925  -2.3204  -2.2115  -2.1477  -2.0571  -1.9329
    -1.8979  -1.8645  -1.7146  -1.5896  -1.5339  -1.3725  -1.2236  -1.1022
    -1.0663  -0.9679  -0.9608  -0.7729  -0.7297  -0.5184  -0.4576  -0.4380
    -0.3045  -0.0806   0.1893   0.2902   0.3153   0.4391   2.7643   3.0778
     3.7739   4.8229   6.1609   7.7221   9.0793   9.1853   9.3480   9.6023

          k =-0.5005 0.7214 0.0000 ( 10771 PWs)   bands (ev):

    -2.8365  -2.7650  -2.7146  -2.6212  -2.5245  -2.4962  -2.3517  -2.2309
    -2.0764  -1.8385  -1.6918  -1.4585  -1.4047  -1.2607  -1.1138  -1.0292
    -0.7316  -0.6519  -0.5690  -0.3142  -0.2840  -0.1790  -0.1049  -0.0412
     0.0248   0.0400   0.2075   0.2564   0.3150   0.4392   2.8647   3.1899
     3.8007   4.7215   5.7703   6.4488   7.3195   7.8623   8.3792   9.1095

          k =-0.5005-0.2893 0.0000 ( 10756 PWs)   bands (ev):

    -3.0375  -2.9807  -2.9027  -2.8584  -2.7404  -2.6352  -2.5919  -2.5015
    -2.1460  -1.7397  -1.6633  -1.5641  -1.4416  -1.2013  -0.9136  -0.7951
    -0.6939  -0.4128  -0.3708  -0.1064  -0.0302   0.1051   0.1963   0.2847
     0.2965   0.3517   0.3617   0.4230   0.4442   0.4749   3.1066   3.6470
     4.1316   4.4612   4.6866   4.8160   6.9615   7.4134   7.9079   8.5359

     the Fermi energy is     3.1234 ev

!    total energy              =    -505.74962024 Ry
     estimated scf accuracy    <          5.9E-09 Ry
     smearing contrib. (-TS)   =      -0.00237594 Ry
     internal energy E=F+TS    =    -505.74724429 Ry

     The total energy is F=E-TS. E is the sum of the following terms:
     one-electron contribution =   -6607.51248382 Ry
     hartree contribution      =    3354.28214574 Ry
     xc contribution           =    -133.97783488 Ry
     ewald contribution        =    2881.63751350 Ry
     DFT-D3 Dispersion         =      -0.17658483 Ry

     convergence has been achieved in   8 iterations

     negative rho (up, down):  1.185E-05 0.000E+00

     Forces acting on atoms (cartesian axes, Ry/au):

     atom    1 type  1   force =     0.00010668    0.00006131   -0.00243725
     atom    2 type  1   force =    -0.00031673   -0.00018319    0.00724254
     atom    3 type  1   force =     0.00008878    0.00005120   -0.00201796
     atom    4 type  1   force =    -0.00004636   -0.00002597    0.00104883
     atom    5 type  1   force =     0.00022487    0.00013018   -0.00516114
     atom    6 type  1   force =    -0.00005724   -0.00003354    0.00132498
     The non-local contrib.  to forces
     atom    1 type  1   force =     0.00226113    0.00130679   -0.05170943
     atom    2 type  1   force =     0.00195718    0.00113155   -0.04477275
     atom    3 type  1   force =    -0.00009341   -0.00005440    0.00214107
     atom    4 type  1   force =     0.00012300    0.00007183   -0.00282854
     atom    5 type  1   force =    -0.00203112   -0.00117380    0.04642125
     atom    6 type  1   force =    -0.00221749   -0.00128246    0.05071506
     The ionic contribution  to forces
     atom    1 type  1   force =     7.04180743    4.07077181 -161.04045495
     atom    2 type  1   force =     4.23739812    2.44958145  -96.90587657
     atom    3 type  1   force =     1.41306432    0.81687301  -32.31564109
     atom    4 type  1   force =    -1.41171366   -0.81609165   32.28474908
     atom    5 type  1   force =    -4.24233425   -2.45243587   97.01876852
     atom    6 type  1   force =    -7.03822197   -4.06869875  160.95845501
     The local contribution  to forces
     atom    1 type  1   force =    -7.04349723   -4.07174895  161.07910501
     atom    2 type  1   force =    -4.23953013   -2.45081342   96.95463090
     atom    3 type  1   force =    -1.41287736   -0.81676499   32.31136414
     atom    4 type  1   force =     1.41154248    0.81599283  -32.28083595
     atom    5 type  1   force =     4.24443792    2.45365184  -97.06688495
     atom    6 type  1   force =     7.03992469    4.06968293 -160.99739648
     The core correction contribution to forces
     atom    1 type  1   force =    -0.00024898   -0.00014396    0.00569437
     atom    2 type  1   force =     0.00000778    0.00000453   -0.00017766
     atom    3 type  1   force =     0.00000633    0.00000365   -0.00014466
     atom    4 type  1   force =    -0.00001225   -0.00000710    0.00028004
     atom    5 type  1   force =     0.00000592    0.00000340   -0.00013589
     atom    6 type  1   force =     0.00024201    0.00013990   -0.00553496
     The Hubbard contrib.    to forces
     atom    1 type  1   force =     0.00000000    0.00000000    0.00000000
     atom    2 type  1   force =     0.00000000    0.00000000    0.00000000
     atom    3 type  1   force =     0.00000000    0.00000000    0.00000000
     atom    4 type  1   force =     0.00000000    0.00000000    0.00000000
     atom    5 type  1   force =     0.00000000    0.00000000    0.00000000
     atom    6 type  1   force =     0.00000000    0.00000000    0.00000000
     The SCF correction term to forces
     atom    1 type  1   force =     0.00000000    0.00000000   -0.00000000
     atom    2 type  1   force =     0.00000000    0.00000000   -0.00000000
     atom    3 type  1   force =     0.00000000    0.00000000   -0.00000000
     atom    4 type  1   force =    -0.00000000   -0.00000000    0.00000000
     atom    5 type  1   force =    -0.00001520   -0.00000878    0.00035708
     atom    6 type  1   force =    -0.00000096   -0.00000028    0.00002920

     DFT-D3 dispersion contribution to forces:
[...]
    -0.1761  -0.1433   0.0623   0.0915   0.1243   0.2717   0.7364   0.8756
     1.4964   2.6343   4.1134   5.8248   7.5057   9.2073   9.9190  10.3826

          k = 0.1251-0.6496 0.0000 ( 10762 PWs)   bands (ev):

    -2.8479  -2.7759  -2.7241  -2.6230  -2.5283  -2.4973  -2.3429  -2.2256
    -2.0664  -1.8408  -1.7000  -1.4588  -1.4069  -1.2654  -1.1144  -1.0230
    -0.7351  -0.6497  -0.5734  -0.3149  -0.2840  -0.1794  -0.1079  -0.0441
     0.0234   0.0377   0.2078   0.2549   0.3144   0.4380   2.8593   3.1896
     3.8057   4.7175   5.7674   6.4466   7.3208   7.8615   8.3802   9.1144

          k = 0.1251-0.5052 0.0000 ( 10760 PWs)   bands (ev):

    -2.8479  -2.7759  -2.7241  -2.6230  -2.5283  -2.4973  -2.3429  -2.2256
    -2.0664  -1.8408  -1.7000  -1.4588  -1.4069  -1.2654  -1.1144  -1.0229
    -0.7351  -0.6497  -0.5734  -0.3149  -0.2840  -0.1794  -0.1078  -0.0441
     0.0234   0.0377   0.2078   0.2549   0.3145   0.4381   2.8593   3.1896
     3.8057   4.7175   5.7674   6.4466   7.3208   7.8615   8.3802   9.1144

          k = 0.1251-0.3608 0.0000 ( 10818 PWs)   bands (ev):

    -2.6631  -2.5492  -2.5026  -2.4178  -2.3750  -2.3049  -2.1648  -1.9825
    -1.9619  -1.7634  -1.6542  -1.5066  -1.4443  -1.3484  -1.2488  -1.1923
    -1.0589  -0.9178  -0.8366  -0.7997  -0.6647  -0.6033  -0.4681  -0.3820
    -0.1761  -0.1433   0.0623   0.0915   0.1244   0.2717   0.7364   0.8756
     1.4964   2.6343   4.1134   5.8248   7.5057   9.2078   9.9094  10.4716

          k = 0.1251-0.2164 0.0000 ( 10863 PWs)   bands (ev):

    -3.1987  -2.8412  -2.4101  -2.3724  -2.3047  -2.1732  -2.0067  -1.9101
    -1.8756  -1.8419  -1.6568  -1.5600  -1.4741  -1.4648  -1.2848  -1.2737
    -1.2100  -1.1511  -1.0397  -0.9100  -0.8058  -0.7643  -0.7185  -0.6605
    -0.5916  -0.4112  -0.3704  -0.2509  -0.2386  -0.2358  -0.0131   0.1704
     0.2860   1.2455   2.6202   4.2709   5.5164   8.0025   8.4469   9.0614

          k = 0.2502-0.1441 0.0000 ( 10871 PWs)   bands (ev):

    -3.0273  -2.7628  -2.6043  -2.4912  -2.3780  -2.2113  -2.1451  -2.0217
    -1.8362  -1.7261  -1.5813  -1.3926  -1.2995  -1.2497  -1.2420  -1.0757
    -1.0486  -0.9441  -0.8262  -0.8223  -0.7490  -0.6908  -0.6232  -0.5741
    -0.5176  -0.4366  -0.3708  -0.3653  -0.2513  -0.1294   0.0827   0.2872
     0.3540   1.5054   2.9729   4.6682   6.0599   8.2861   8.8199   9.3534

          k = 0.2502 0.0003 0.0000 ( 10868 PWs)   bands (ev):

    -3.1987  -2.8412  -2.4101  -2.3724  -2.3048  -2.1732  -2.0067  -1.9101
    -1.8756  -1.8419  -1.6568  -1.5600  -1.4742  -1.4649  -1.2848  -1.2737
    -1.2100  -1.1511  -1.0397  -0.9101  -0.8058  -0.7643  -0.7186  -0.6605
    -0.5916  -0.4111  -0.3704  -0.2509  -0.2386  -0.2357  -0.0131   0.1704
     0.2860   1.2455   2.6202   4.2709   5.5164   8.0016   8.4547   8.9758

          k = 0.2502 0.1447 0.0000 ( 10860 PWs)   bands (ev):

    -3.0273  -2.7628  -2.6043  -2.4912  -2.3780  -2.2113  -2.1451  -2.0217
    -1.8362  -1.7261  -1.5813  -1.3927  -1.2995  -1.2497  -1.2420  -1.0756
    -1.0486  -0.9441  -0.8262  -0.8223  -0.7490  -0.6908  -0.6232  -0.5741
    -0.5176  -0.4365  -0.3707  -0.3653  -0.2513  -0.1294   0.0827   0.2872
     0.3540   1.5054   2.9729   4.6682   6.0599   8.2855   8.8263   9.3122

          k = 0.2502 0.2890 0.0000 ( 10819 PWs)   bands (ev):

    -2.6632  -2.5491  -2.5026  -2.4178  -2.3750  -2.3048  -2.1648  -1.9825
    -1.9619  -1.7635  -1.6542  -1.5067  -1.4443  -1.3484  -1.2488  -1.1924
    -1.0588  -0.9178  -0.8366  -0.7997  -0.6648  -0.6033  -0.4681  -0.3819
    -0.1761  -0.1433   0.0623   0.0915   0.1243   0.2717   0.7364   0.8756
     1.4964   2.6343   4.1134   5.8248   7.5057   9.2070   9.9269  10.3208

          k = 0.2502-0.7216 0.0000 ( 10755 PWs)   bands (ev):

    -2.5475  -2.5378  -2.4009  -2.3198  -2.2131  -2.1554  -2.0557  -1.9317
    -1.8965  -1.8554  -1.7159  -1.5914  -1.5371  -1.3755  -1.2259  -1.1016
    -1.0621  -0.9696  -0.9486  -0.7727  -0.7284  -0.5229  -0.4589  -0.4436
    -0.3107  -0.0824   0.1893   0.2893   0.3128   0.4381   2.7590   3.0778
     3.7791   4.8178   6.1583   7.7263   9.0755   9.1795   9.3451   9.6020

          k = 0.2502-0.5773 0.0000 ( 10783 PWs)   bands (ev):

    -2.6111  -2.4082  -2.3688  -2.2966  -2.2475  -2.1521  -2.0819  -2.0470
    -1.8910  -1.8220  -1.7674  -1.5527  -1.4575  -1.3156  -1.2226  -1.1715
    -1.0528  -0.8403  -0.8199  -0.7689  -0.6697  -0.4883  -0.4017  -0.3174
    -0.0517  -0.0363   0.0970   0.1478   0.2476   0.2827   5.4453   5.5045
     5.7770   6.1151   6.5590   7.0316   7.6416   8.2546   8.6622   8.9068

          k = 0.2502-0.4329 0.0000 ( 10756 PWs)   bands (ev):

    -2.5475  -2.5378  -2.4009  -2.3198  -2.2131  -2.1554  -2.0557  -1.9318
    -1.8965  -1.8554  -1.7159  -1.5914  -1.5371  -1.3755  -1.2259  -1.1016
    -1.0621  -0.9696  -0.9486  -0.7726  -0.7285  -0.5228  -0.4590  -0.4436
    -0.3107  -0.0824   0.1893   0.2894   0.3128   0.4381   2.7590   3.0778
     3.7791   4.8178   6.1582   7.7263   9.0755   9.1795   9.3451   9.6020

          k = 0.2502-0.2885 0.0000 ( 10818 PWs)   bands (ev):

    -2.6631  -2.5492  -2.5026  -2.4178  -2.3750  -2.3049  -2.1648  -1.9825
    -1.9619  -1.7634  -1.6542  -1.5066  -1.4443  -1.3484  -1.2488  -1.1923
    -1.0589  -0.9178  -0.8366  -0.7997  -0.6647  -0.6033  -0.4681  -0.3820
    -0.1761  -0.1433   0.0623   0.0915   0.1244   0.2717   0.7364   0.8756
     1.4964   2.6343   4.1134   5.8248   7.5057   9.2078   9.9094  10.4715

          k = 0.3754-0.2162 0.0000 ( 10791 PWs)   bands (ev):

    -2.9106  -2.8893  -2.7689  -2.7271  -2.6572  -2.4961  -2.4550  -2.3590
    -2.0230  -1.7053  -1.5370  -1.4698  -1.3845  -1.1488  -1.1357  -0.8748
    -0.7590  -0.6531  -0.3985  -0.3082  -0.1301  -0.1235   0.0101   0.0490
     0.0513   0.0939   0.1582   0.1700   0.2116   0.3448   0.9090   1.2733
     1.9277   3.1123   4.6163   6.3041   7.9547   8.4310   8.9426   9.6071

          k = 0.3754-0.0718 0.0000 ( 10820 PWs)   bands (ev):

    -2.6632  -2.5492  -2.5026  -2.4178  -2.3750  -2.3049  -2.1648  -1.9824
    -1.9619  -1.7635  -1.6542  -1.5067  -1.4443  -1.3484  -1.2488  -1.1924
    -1.0589  -0.9178  -0.8366  -0.7997  -0.6647  -0.6033  -0.4681  -0.3820
    -0.1761  -0.1433   0.0623   0.0915   0.1243   0.2717   0.7364   0.8756
     1.4964   2.6343   4.1134   5.8248   7.5057   9.2073   9.9190  10.3826

          k = 0.3754 0.0726 0.0000 ( 10819 PWs)   bands (ev):

    -2.6632  -2.5491  -2.5026  -2.4178  -2.3750  -2.3048  -2.1648  -1.9825
    -1.9619  -1.7635  -1.6542  -1.5067  -1.4443  -1.3484  -1.2488  -1.1924
    -1.0588  -0.9178  -0.8366  -0.7997  -0.6648  -0.6033  -0.4681  -0.3819
    -0.1761  -0.1433   0.0623   0.0915   0.1243   0.2717   0.7364   0.8756
     1.4964   2.6343   4.1134   5.8248   7.5057   9.2070   9.9269  10.3208

          k = 0.3754 0.2170 0.0000 ( 10794 PWs)   bands (ev):

    -2.9106  -2.8893  -2.7690  -2.7271  -2.6571  -2.4961  -2.4550  -2.3590
    -2.0230  -1.7053  -1.5370  -1.4699  -1.3844  -1.1487  -1.1358  -0.8748
    -0.7590  -0.6531  -0.3985  -0.3083  -0.1301  -0.1236   0.0101   0.0491
     0.0513   0.0939   0.1582   0.1700   0.2116   0.3447   0.9090   1.2733
     1.9278   3.1123   4.6163   6.3041   7.9546   8.4310   8.9426   9.6070

          k = 0.3754-0.7937 0.0000 ( 10771 PWs)   bands (ev):

    -2.8480  -2.7758  -2.7241  -2.6230  -2.5283  -2.4973  -2.3430  -2.2256
    -2.0665  -1.8408  -1.7000  -1.4588  -1.4070  -1.2654  -1.1144  -1.0230
    -0.7351  -0.6497  -0.5735  -0.3149  -0.2840  -0.1794  -0.1079  -0.0442
     0.0234   0.0376   0.2078   0.2549   0.3144   0.4380   2.8593   3.1896
     3.8057   4.7175   5.7674   6.4465   7.3209   7.8615   8.3802   9.1144

          k = 0.3754-0.6493 0.0000 ( 10768 PWs)   bands (ev):

    -2.6111  -2.4082  -2.3687  -2.2966  -2.2474  -2.1521  -2.0818  -2.0470
    -1.8909  -1.8219  -1.7674  -1.5527  -1.4575  -1.3156  -1.2226  -1.1715
    -1.0528  -0.8404  -0.8200  -0.7689  -0.6697  -0.4883  -0.4016  -0.3173
    -0.0516  -0.0363   0.0971   0.1478   0.2477   0.2828   5.4454   5.5045
     5.7770   6.1151   6.5590   7.0316   7.6416   8.2546   8.6622   8.9068

          k = 0.3754-0.5049 0.0000 ( 10783 PWs)   bands (ev):

    -2.6111  -2.4082  -2.3688  -2.2966  -2.2475  -2.1521  -2.0819  -2.0470
    -1.8910  -1.8220  -1.7674  -1.5527  -1.4575  -1.3156  -1.2226  -1.1715
    -1.0528  -0.8403  -0.8199  -0.7689  -0.6697  -0.4883  -0.4017  -0.3174
    -0.0517  -0.0363   0.0970   0.1478   0.2476   0.2827   5.4454   5.5045
     5.7770   6.1151   6.5590   7.0316   7.6416   8.2546   8.6622   8.9068

          k = 0.3754-0.3605 0.0000 ( 10760 PWs)   bands (ev):

    -2.8479  -2.7759  -2.7241  -2.6230  -2.5283  -2.4973  -2.3429  -2.2256
    -2.0664  -1.8408  -1.7000  -1.4588  -1.4069  -1.2654  -1.1144  -1.0229
    -0.7351  -0.6497  -0.5734  -0.3149  -0.2840  -0.1794  -0.1078  -0.0441
     0.0234   0.0377   0.2078   0.2549   0.3144   0.4381   2.8593   3.1896
     3.8057   4.7175   5.7674   6.4466   7.3208   7.8615   8.3802   9.1144

          k =-0.5005 0.2882 0.0000 ( 10736 PWs)   bands (ev):

    -3.0478  -2.9906  -2.9131  -2.8613  -2.7433  -2.6369  -2.5838  -2.4954
    -2.1347  -1.7404  -1.6655  -1.5639  -1.4542  -1.2026  -0.9162  -0.7824
    -0.7003  -0.4136  -0.3758  -0.1084  -0.0342   0.1055   0.1953   0.2801
     0.2928   0.3511   0.3587   0.4229   0.4485   0.4757   3.1004   3.6473
     4.1337   4.4593   4.6859   4.8155   6.9624   7.4085   7.9069   8.5429

          k =-0.5005 0.4326 0.0000 ( 10762 PWs)   bands (ev):

    -2.8479  -2.7759  -2.7241  -2.6230  -2.5283  -2.4973  -2.3429  -2.2256
    -2.0664  -1.8408  -1.7000  -1.4588  -1.4069  -1.2654  -1.1144  -1.0230
    -0.7351  -0.6497  -0.5734  -0.3149  -0.2840  -0.1794  -0.1079  -0.0441
     0.0234   0.0377   0.2078   0.2549   0.3144   0.4380   2.8593   3.1896
     3.8057   4.7175   5.7674   6.4466   7.3208   7.8615   8.3802   9.1144

          k =-0.5005 0.5770 0.0000 ( 10755 PWs)   bands (ev):

    -2.5475  -2.5378  -2.4009  -2.3198  -2.2131  -2.1554  -2.0557  -1.9317
    -1.8965  -1.8554  -1.7159  -1.5914  -1.5371  -1.3755  -1.2259  -1.1016
    -1.0621  -0.9696  -0.9486  -0.7727  -0.7284  -0.5229  -0.4589  -0.4436
    -0.3107  -0.0824   0.1893   0.2893   0.3128   0.4381   2.7590   3.0778
     3.7791   4.8178   6.1583   7.7263   9.0755   9.1795   9.3451   9.6020

          k =-0.5005 0.7214 0.0000 ( 10771 PWs)   bands (ev):

    -2.8480  -2.7758  -2.7241  -2.6230  -2.5283  -2.4973  -2.3430  -2.2256
    -2.0665  -1.8408  -1.7000  -1.4588  -1.4070  -1.2654  -1.1144  -1.0230
    -0.7351  -0.6497  -0.5735  -0.3149  -0.2840  -0.1794  -0.1079  -0.0442
     0.0234   0.0376   0.2078   0.2549   0.3144   0.4380   2.8593   3.1896
     3.8057   4.7175   5.7674   6.4465   7.3209   7.8615   8.3802   9.1144

          k =-0.5005-0.2893 0.0000 ( 10756 PWs)   bands (ev):

    -3.0478  -2.9905  -2.9131  -2.8613  -2.7434  -2.6370  -2.5838  -2.4955
    -2.1348  -1.7405  -1.6654  -1.5639  -1.4541  -1.2027  -0.9163  -0.7825
    -0.7004  -0.4138  -0.3758  -0.1084  -0.0341   0.1054   0.1953   0.2801
     0.2928   0.3510   0.3586   0.4228   0.4485   0.4757   3.1004   3.6473
     4.1337   4.4593   4.6859   4.8155   6.9624   7.4085   7.9069   8.5429

     the Fermi energy is     3.1204 ev

!    total energy              =    -505.74974009 Ry
     estimated scf accuracy    <          9.5E-09 Ry
     smearing contrib. (-TS)   =      -0.00236501 Ry
     internal energy E=F+TS    =    -505.74737508 Ry

     The total energy is F=E-TS. E is the sum of the following terms:
     one-electron contribution =   -6617.11551926 Ry
     hartree contribution      =    3359.07967897 Ry
     xc contribution           =    -133.97860225 Ry
     ewald contribution        =    2886.44383824 Ry
     DFT-D3 Dispersion         =      -0.17677078 Ry

     convergence has been achieved in   6 iterations

     negative rho (up, down):  1.251E-05 0.000E+00

     Forces acting on atoms (cartesian axes, Ry/au):

     atom    1 type  1   force =     0.00010768    0.00006250   -0.00247113
     atom    2 type  1   force =    -0.00031741   -0.00018350    0.00725991
     atom    3 type  1   force =     0.00008307    0.00004801   -0.00189476
     atom    4 type  1   force =     0.00009209    0.00005381   -0.00211359
     atom    5 type  1   force =    -0.00000337   -0.00000195    0.00008079
     atom    6 type  1   force =     0.00003795    0.00002113   -0.00086121
     The non-local contrib.  to forces
     atom    1 type  1   force =     0.00226227    0.00130803   -0.05174919
     atom    2 type  1   force =     0.00194722    0.00112564   -0.04453140
     atom    3 type  1   force =    -0.00006934   -0.00004021    0.00159143
     atom    4 type  1   force =     0.00019922    0.00011564   -0.00456435
     atom    5 type  1   force =    -0.00220638   -0.00127547    0.05045847
     atom    6 type  1   force =    -0.00213033   -0.00123206    0.04871966
     The ionic contribution  to forces
     atom    1 type  1   force =     7.04587877    4.07312540 -161.13356326
     atom    2 type  1   force =     4.24146948    2.45193505  -96.99898531
     atom    3 type  1   force =     1.41713215    0.81922457  -32.40866910
     atom    4 type  1   force =    -1.40890453   -0.81446616   32.22045338
     atom    5 type  1   force =    -4.25934635   -2.46227205   97.40793872
     atom    6 type  1   force =    -7.03622953   -4.06754680  160.91282557
     The local contribution  to forces
     atom    1 type  1   force =    -7.04757621   -4.07410675  161.17238439
     atom    2 type  1   force =    -4.24358416   -2.45315764   97.04734741
     atom    3 type  1   force =    -1.41695927   -0.81912464   32.40471288
     atom    4 type  1   force =     1.40880591    0.81440925  -32.21820130
     atom    5 type  1   force =     4.26133175    2.46341966  -97.45334119
     atom    6 type  1   force =     7.03796823    4.06855173 -160.95258513
     The core correction contribution to forces
     atom    1 type  1   force =    -0.00024919   -0.00014406    0.00569894
     atom    2 type  1   force =     0.00000778    0.00000449   -0.00017763
     atom    3 type  1   force =     0.00000612    0.00000353   -0.00014018
     atom    4 type  1   force =    -0.00003107   -0.00001797    0.00071059
     atom    5 type  1   force =     0.00004092    0.00002367   -0.00093656
     atom    6 type  1   force =     0.00022720    0.00013133   -0.00519529
     The Hubbard contrib.    to forces
     atom    1 type  1   force =     0.00000000    0.00000000    0.00000000
     atom    2 type  1   force =     0.00000000    0.00000000    0.00000000
     atom    3 type  1   force =     0.00000000    0.00000000    0.00000000
     atom    4 type  1   force =     0.00000000    0.00000000    0.00000000
     atom    5 type  1   force =     0.00000000    0.00000000    0.00000000
     atom    6 type  1   force =     0.00000000    0.00000000    0.00000000
     The SCF correction term to forces
     atom    1 type  1   force =     0.00000000    0.00000000   -0.00000000
     atom    2 type  1   force =    -0.00000000   -0.00000000    0.00000000
     atom    3 type  1   force =    -0.00000000   -0.00000000    0.00000000
     atom    4 type  1   force =     0.00000000    0.00000000   -0.00000000
     atom    5 type  1   force =     0.00000411    0.00000241   -0.00009329
     atom    6 type  1   force =    -0.00000894   -0.00000529    0.00020431

     DFT-D3 dispersion contribution to forces:
     atom    1 type  1   force =    -0.00021829   -0.00012619    0.00499205
     atom    2 type  1   force =    -0.00015722   -0.00009089    0.00359559
     atom    3 type  1   force =    -0.00002061   -0.00001191    0.00047134
     atom    4 type  1   force =     0.00001193    0.00000689   -0.00027257
     atom    5 type  1   force =     0.00017273    0.00009986   -0.00395072
     atom    6 type  1   force =     0.00021147    0.00012224   -0.00483569

     Total force =     0.000866     Total SCF correction =     0.000225
     SCF correction compared to forces is large: reduce conv_thr to get better values


     Computing stress (Cartesian axis) and pressure


     negative rho (up, down):  1.251E-05 0.000E+00
          total   stress  (Ry/bohr**3)                   (kbar)     P=      -15.22
  -0.00011569   0.00000004  -0.00000160          -17.02        0.01       -0.24
   0.00000004  -0.00011574  -0.00000093            0.01      -17.03       -0.14
  -0.00000160  -0.00000093  -0.00007895           -0.24       -0.14      -11.61

     Energy error            =      4.1E-06 Ry
     Gradient error          =      8.6E-04 Ry/Bohr

     bfgs converged in  11 scf cycles and  10 bfgs steps
     (criteria: energy <  1.0E-04 Ry, force <  1.0E-03 Ry/Bohr)

     End of BFGS Geometry Optimization

     Final energy             =    -505.7497400932 Ry

     File ./Ag_111/Ag_111.bfgs deleted, as requested
Begin final coordinates

ATOMIC_POSITIONS (angstrom)
Ag            1.9495966967        0.5683247470       10.1267839913    0   0   0
Ag            1.8442630363        2.1835635018       12.5356798267    0   0   0
Ag            3.1914251139        1.2862086380       14.9445756621    0   0   0
Ag            1.6391395924        0.3888537743       17.2266875061    0   0   0
Ag            1.5352132586        2.0049095760       19.6033058512
Ag            2.8809078393        1.1067053890       22.0458919710
End final coordinates



     Writing all to output data dir ./Ag_111/Ag_111.save/

     init_run     :      6.07s CPU      6.55s WALL (       1 calls)
     electrons    :     31.24s CPU     35.40s WALL (      11 calls)
     update_pot   :      3.05s CPU      3.22s WALL (      10 calls)
     forces       :      2.70s CPU      2.94s WALL (      11 calls)
     force_dftd3  :      0.06s CPU      0.11s WALL (      11 calls)
     stress       :      9.76s CPU      9.95s WALL (      11 calls)
     stres_dftd3  :      0.04s CPU      0.06s WALL (      11 calls)

     Called by init_run:
     wfcinit      :      0.40s CPU      0.66s WALL (       1 calls)
     potinit      :      1.86s CPU      1.88s WALL (       1 calls)
     hinit0       :      3.74s CPU      3.93s WALL (       1 calls)

     Called by electrons:
     c_bands      :     25.78s CPU     28.00s WALL (      84 calls)
     sum_band     :      3.81s CPU      4.31s WALL (      84 calls)
     v_of_rho     :      0.80s CPU      1.12s WALL (      86 calls)
     newd         :      0.61s CPU      0.63s WALL (      86 calls)
     mix_rho      :      0.09s CPU      0.10s WALL (      84 calls)
     energy_dftd3 :      0.02s CPU      0.02s WALL (      11 calls)

     Called by c_bands:
     init_us_2    :      0.20s CPU      0.21s WALL (    1719 calls)
     init_us_2:cp :      0.19s CPU      0.21s WALL (    1719 calls)
     cegterg      :     23.26s CPU     24.66s WALL (     756 calls)

     Called by *egterg:
     cdiaghg      :      5.74s CPU      5.81s WALL (    2876 calls)
     h_psi        :     14.18s CPU     15.39s WALL (    3056 calls)
     s_psi        :      0.63s CPU      0.66s WALL (    3056 calls)
     g_psi        :      0.06s CPU      0.06s WALL (    2291 calls)

     Called by h_psi:
     h_psi:calbec :      1.06s CPU      1.22s WALL (    3056 calls)
     vloc_psi     :     12.46s CPU     13.47s WALL (    3056 calls)
     add_vuspsi   :      0.61s CPU      0.66s WALL (    3056 calls)

     General routines
     calbec       :      2.09s CPU      2.32s WALL (    4307 calls)
     fft          :      4.69s CPU      5.18s WALL (    1390 calls)
     ffts         :      1.81s CPU      2.14s WALL (     170 calls)
     fftw         :     12.99s CPU     14.03s WALL (  189310 calls)
     interpolate  :      1.82s CPU      2.03s WALL (      86 calls)

     Parallel routines

     PWSCF        :     53.23s CPU     59.22s WALL


   This run was terminated on:  11:25:17  18Jul2025            

=------------------------------------------------------------------------------=
   JOB DONE.
=------------------------------------------------------------------------------=
