
     Program PWSCF v.7.2 starts on 24Jul2025 at  5:17:46 

     This program is part of the open-source Quantum ESPRESSO suite
     for quantum simulation of materials; please cite
         "P. Giannozzi et al., J. Phys.:Condens. Matter 21 395502 (2009);
         "P. Giannozzi et al., J. Phys.:Condens. Matter 29 465901 (2017);
         "P. Giannozzi et al., J. Chem. Phys. 152 154105 (2020);
          URL http://www.quantum-espresso.org", 
     in publications or presentations arising from this work. More details at
     http://www.quantum-espresso.org/quote

     Parallel version (MPI & OpenMP), running on     128 processor cores
     Number of MPI processes:               128
     Threads/MPI process:                     1

     MPI processes distributed on     2 nodes
     243965 MiB available memory on the printing compute node when the environment starts

     Reading input from Ag_mp-124_111_hollow_0.in

     Current dimensions of program PWSCF are:
     Max number of different atomic species (ntypx) = 10
     Max number of k-points (npk) =  40000
     Max angular momentum in pseudopotentials (lmaxx) =  4
     Message from routine iosys:
     restart disabled: needed files not found

     K-points division:     npool     =       4
     R & G space division:  proc/nbgrp/npool/nimage =      32
     Subspace diagonalization in iterative solution of the eigenvalue problem:
     a serial algorithm will be used


     Parallelization info
     --------------------
     sticks:   dense  smooth     PW     G-vecs:    dense   smooth      PW
     Min          32      14      4                 9247     2668     476
     Max          33      15      5                 9307     2719     521
     Sum        1039     451    151               296663    86301   15967

     Using Slab Decomposition



     bravais-lattice index     =            0
     lattice parameter (alat)  =       5.4844  a.u.
     unit-cell volume          =    1569.1543 (a.u.)^3
     number of atoms/cell      =            7
     number of atomic types    =            2
     number of electrons       =        69.00
     number of Kohn-Sham states=           42
     kinetic-energy cutoff     =      55.0000  Ry
     charge density cutoff     =     500.0000  Ry
     scf convergence threshold =      1.0E-06
     mixing beta               =       0.3000
     number of iterations used =            8  plain     mixing
     energy convergence thresh.=      1.0E-04
     force convergence thresh. =      1.0E-03
     Exchange-correlation= PBE
                           (   1   4   3   4   0   0   0)
     nstep                     =          500


     celldm(1)=   5.484398  celldm(2)=   0.000000  celldm(3)=   0.000000
     celldm(4)=   0.000000  celldm(5)=   0.000000  celldm(6)=   0.000000

     crystal axes: (cart. coord. in units of alat)
               a(1) = (   0.999045   0.000000   0.043685 )  
               a(2) = (   0.498568   0.865749   0.043685 )  
               a(3) = (   0.000000   0.000000  10.997690 )  

     reciprocal axes: (cart. coord. in units 2 pi/alat)
               b(1) = (  1.000956 -0.576430  0.000000 )  
               b(2) = (  0.000000  1.155069  0.000000 )  
               b(3) = ( -0.003976 -0.002298  0.090928 )  


     PseudoPot. # 1 for Li read from file:
     /home/ecastro/trabajo_final/pseudos/Li.pbe-s-rrkjus_psl.1.0.0.UPF
     MD5 check sum: 9f98d2529904d60b716d33989e9bc179
     Pseudo is Ultrasoft, Zval =  3.0
     Generated using &quot;atomic&quot; code by A. Dal Corso  v.6.3MaX
     Using radial grid of 1017 points,  4 beta functions with: 
                l(1) =   0
                l(2) =   0
                l(3) =   1
                l(4) =   1
     Q(r) pseudized with 0 coefficients 


     PseudoPot. # 2 for Ag read from file:
     /home/ecastro/trabajo_final/pseudos/Ag.pbe-n-rrkjus_psl.1.0.0.UPF
     MD5 check sum: 81cdf87bacf708300839c66ee23ce017
     Pseudo is Ultrasoft + core correction, Zval = 11.0
     Generated using &quot;atomic&quot; code by A. Dal Corso  v.6.2.2
     Using radial grid of 1237 points,  6 beta functions with: 
                l(1) =   0
                l(2) =   0
                l(3) =   1
                l(4) =   1
                l(5) =   2
                l(6) =   2
     Q(r) pseudized with 0 coefficients 


     atomic species   valence    mass     pseudopotential
        Li             3.00     6.94100     Li( 1.00)
        Ag            11.00   107.86820     Ag( 1.00)

     No symmetry found



   Cartesian axes

     site n.     atom                  positions (alat units)
         1           Ag  tau(   1) = (   0.6717609   0.1958243   3.4893255  )
         2           Ag  tau(   2) = (   0.6354667   0.7523774   4.3193443  )
         3           Ag  tau(   3) = (   1.0996503   0.4431812   5.1493632  )
         4           Ag  tau(   4) = (   0.5647885   0.1339850   5.9356968  )
         5           Ag  tau(   5) = (   0.5289793   0.6908197   6.7545940  )
         6           Ag  tau(   6) = (   0.9926572   0.3813309   7.5962214  )
         7           Li  tau(   7) = (   0.4627211   0.6525164   8.2853494  )

     --------------------------------------------
     DFT-D3 Dispersion Correction (no 3-body):
     --------------------------------------------
       Reference C6 values for interpolation: 

         atom   Coordination number   C6
         Li         0.000          2326.89
         Li         0.987           170.64
         Ag         0.000           853.49
         Ag         0.968           537.23

       Values used:

         atom   Coordination number  R0_AB[au]  C6      C8
         Ag         6.506            3.147    537.23  47741.54
         Ag         8.709            3.147    537.23  47741.54
         Ag         8.719            3.147    537.23  47741.54
         Ag         8.815            3.147    537.23  47741.54
         Ag         8.720            3.147    537.23  47741.54
         Ag         9.391            3.147    537.23  47741.54
         Li         8.064            3.303    170.64  12899.87

         Molecular C6 ( Ry / a.u.^6 ) =     22982.53


     number of k points=    34  Methfessel-Paxton smearing, width (Ry)=  0.0300
                       cart. coord. in units 2pi/alat
        k(    1) = (   0.0000000   0.0000000   0.0000000), wk =   0.0312500
        k(    2) = (   0.0000000   0.1443836   0.0000000), wk =   0.0625000
        k(    3) = (   0.0000000   0.2887672   0.0000000), wk =   0.0625000
        k(    4) = (   0.0000000   0.4331508   0.0000000), wk =   0.0625000
        k(    5) = (   0.0000000  -0.5775343   0.0000000), wk =   0.0312500
        k(    6) = (   0.1251194  -0.0720538   0.0000000), wk =   0.0625000
        k(    7) = (   0.1251194   0.0723298   0.0000000), wk =   0.0625000
        k(    8) = (   0.1251194   0.2167134   0.0000000), wk =   0.0625000
        k(    9) = (   0.1251194   0.3610970   0.0000000), wk =   0.0625000
        k(   10) = (   0.1251194  -0.6495881   0.0000000), wk =   0.0625000
        k(   11) = (   0.1251194  -0.5052045   0.0000000), wk =   0.0625000
        k(   12) = (   0.1251194  -0.3608209   0.0000000), wk =   0.0625000
        k(   13) = (   0.1251194  -0.2164373   0.0000000), wk =   0.0625000
        k(   14) = (   0.2502389  -0.1441075   0.0000000), wk =   0.0625000
        k(   15) = (   0.2502389   0.0002761   0.0000000), wk =   0.0625000
        k(   16) = (   0.2502389   0.1446597   0.0000000), wk =   0.0625000
        k(   17) = (   0.2502389   0.2890432   0.0000000), wk =   0.0625000
        k(   18) = (   0.2502389  -0.7216419   0.0000000), wk =   0.0625000
        k(   19) = (   0.2502389  -0.5772583   0.0000000), wk =   0.0625000
        k(   20) = (   0.2502389  -0.4328747   0.0000000), wk =   0.0625000
        k(   21) = (   0.2502389  -0.2884911   0.0000000), wk =   0.0625000
        k(   22) = (   0.3753583  -0.2161613   0.0000000), wk =   0.0625000
        k(   23) = (   0.3753583  -0.0717777   0.0000000), wk =   0.0625000
        k(   24) = (   0.3753583   0.0726059   0.0000000), wk =   0.0625000
        k(   25) = (   0.3753583   0.2169895   0.0000000), wk =   0.0625000
        k(   26) = (   0.3753583  -0.7936956   0.0000000), wk =   0.0625000
        k(   27) = (   0.3753583  -0.6493120   0.0000000), wk =   0.0625000
        k(   28) = (   0.3753583  -0.5049284   0.0000000), wk =   0.0625000
        k(   29) = (   0.3753583  -0.3605449   0.0000000), wk =   0.0625000
        k(   30) = (  -0.5004778   0.2882150   0.0000000), wk =   0.0312500
        k(   31) = (  -0.5004778   0.4325986   0.0000000), wk =   0.0625000
        k(   32) = (  -0.5004778   0.5769822   0.0000000), wk =   0.0625000
        k(   33) = (  -0.5004778   0.7213658   0.0000000), wk =   0.0625000
        k(   34) = (  -0.5004778  -0.2893193   0.0000000), wk =   0.0312500

     Dense  grid:   296663 G-vectors     FFT dimensions: (  40,  40, 432)

     Smooth grid:    86301 G-vectors     FFT dimensions: (  25,  25, 288)

     Estimated max dynamical RAM per process >      19.19 MB

     Estimated total dynamical RAM >       2.19 GB
     Cannot read rho : file not found

     Initial potential from superposition of free atoms

     starting charge      68.9930, renormalised to      69.0000

     negative rho (up, down):  2.896E-05 0.000E+00
     Message from routine qexsd_readschema :
     xml data file ./Ag_mp-124_111_hollow_0/Ag_mp-124_111_hollow_0.save/data-file-sch
     Cannot read wfcs: file not found
     Starting wfcs are   59 randomized atomic wfcs

     total cpu time spent up to now is        7.0 secs

     per-process dynamical memory:   175.3 Mb

     Self-consistent Calculation

     iteration #  1     ecut=    55.00 Ry     beta= 0.30
     Davidson diagonalization with overlap
     c_bands:  2 eigenvalues not converged
     c_bands:  1 eigenvalues not converged
     c_bands:  1 eigenvalues not converged
     c_bands:  1 eigenvalues not converged
     c_bands:  1 eigenvalues not converged
     ethr =  1.00E-05,  avg # of iterations = 19.6

     negative rho (up, down):  2.300E-05 0.000E+00

     total cpu time spent up to now is        9.0 secs

     total energy              =    -520.42994732 Ry
     estimated scf accuracy    <       0.52420731 Ry

     iteration #  2     ecut=    55.00 Ry     beta= 0.30
     Davidson diagonalization with overlap
     ethr =  7.60E-04,  avg # of iterations =  8.5

     negative rho (up, down):  5.776E-05 0.000E+00

     total cpu time spent up to now is        9.7 secs

     total energy              =    -517.53006253 Ry
     estimated scf accuracy    <     181.23349835 Ry

     iteration #  3     ecut=    55.00 Ry     beta= 0.30
     Davidson diagonalization with overlap
     ethr =  7.60E-04,  avg # of iterations =  8.1

     negative rho (up, down):  5.843E-05 0.000E+00

     total cpu time spent up to now is       10.4 secs

     total energy              =    -520.61440721 Ry
     estimated scf accuracy    <       0.31291053 Ry

     iteration #  4     ecut=    55.00 Ry     beta= 0.30
     Davidson diagonalization with overlap
     ethr =  4.53E-04,  avg # of iterations =  2.0

     negative rho (up, down):  5.737E-05 0.000E+00

     total cpu time spent up to now is       10.7 secs

     total energy              =    -520.61122434 Ry
     estimated scf accuracy    <       0.58333964 Ry

     iteration #  5     ecut=    55.00 Ry     beta= 0.30
     Davidson diagonalization with overlap
     ethr =  4.53E-04,  avg # of iterations =  2.0

     negative rho (up, down):  5.407E-05 0.000E+00

     total cpu time spent up to now is       11.1 secs

     total energy              =    -520.62620171 Ry
     estimated scf accuracy    <       0.33894629 Ry

     iteration #  6     ecut=    55.00 Ry     beta= 0.30
     Davidson diagonalization with overlap
     ethr =  4.53E-04,  avg # of iterations =  1.1

     negative rho (up, down):  3.309E-05 0.000E+00

     total cpu time spent up to now is       11.4 secs

     total energy              =    -520.63603448 Ry
     estimated scf accuracy    <       0.02518127 Ry

     iteration #  7     ecut=    55.00 Ry     beta= 0.30
     Davidson diagonalization with overlap
     ethr =  3.65E-05,  avg # of iterations =  6.1

     negative rho (up, down):  2.407E-05 0.000E+00

     total cpu time spent up to now is       12.0 secs

     total energy              =    -520.63604235 Ry
     estimated scf accuracy    <       0.01779476 Ry

     iteration #  8     ecut=    55.00 Ry     beta= 0.30
     Davidson diagonalization with overlap
     ethr =  2.58E-05,  avg # of iterations =  1.8

     negative rho (up, down):  7.136E-06 0.000E+00

     total cpu time spent up to now is       12.3 secs

     total energy              =    -520.63610109 Ry
     estimated scf accuracy    <       0.00171551 Ry

     iteration #  9     ecut=    55.00 Ry     beta= 0.30
     Davidson diagonalization with overlap
     ethr =  2.49E-06,  avg # of iterations =  8.2

     negative rho (up, down):  6.515E-06 0.000E+00

     total cpu time spent up to now is       12.9 secs

     total energy              =    -520.63628930 Ry
     estimated scf accuracy    <       0.00009313 Ry

     iteration # 10     ecut=    55.00 Ry     beta= 0.30
     Davidson diagonalization with overlap
     ethr =  1.35E-07,  avg # of iterations =  2.1

     negative rho (up, down):  6.760E-06 0.000E+00

     total cpu time spent up to now is       13.3 secs

     total energy              =    -520.63628966 Ry
     estimated scf accuracy    <       0.00014408 Ry

     iteration # 11     ecut=    55.00 Ry     beta= 0.30
     Davidson diagonalization with overlap
     ethr =  1.35E-07,  avg # of iterations =  1.2

     negative rho (up, down):  7.495E-06 0.000E+00

     total cpu time spent up to now is       13.6 secs

     total energy              =    -520.63629134 Ry
     estimated scf accuracy    <       0.00003530 Ry

     iteration # 12     ecut=    55.00 Ry     beta= 0.30
     Davidson diagonalization with overlap
     ethr =  5.12E-08,  avg # of iterations =  1.9

     negative rho (up, down):  7.822E-06 0.000E+00

     total cpu time spent up to now is       14.0 secs

     total energy              =    -520.63629431 Ry
     estimated scf accuracy    <       0.00000200 Ry

     iteration # 13     ecut=    55.00 Ry     beta= 0.30
     Davidson diagonalization with overlap
     ethr =  2.90E-09,  avg # of iterations =  3.4

     negative rho (up, down):  8.288E-06 0.000E+00

     total cpu time spent up to now is       14.4 secs

     End of self-consistent calculation

          k = 0.0000 0.0000 0.0000 ( 10919 PWs)   bands (ev):

   -42.7561  -3.6181  -3.1515  -2.5808  -2.3565  -2.2879  -2.1943  -1.0004
    -0.8270  -0.8162  -0.8162  -0.7956  -0.7501  -0.7500  -0.7264  -0.7264
    -0.6607  -0.6607  -0.6329  -0.6328  -0.5378  -0.5378  -0.1572   0.1361
     0.1364   0.2065   0.2065   0.2392   0.2393   0.4734   0.4734   0.7247
     0.7248   0.9297   0.9298   1.0301   2.2559   3.5051   3.9637   7.1868
     7.7726   8.1308

          k = 0.0000 0.1444 0.0000 ( 10876 PWs)   bands (ev):

   -42.7528  -3.2071  -2.7589  -2.2102  -2.1020  -2.0068  -1.8865  -1.1498
    -1.0307  -0.9458  -0.8776  -0.8536  -0.8054  -0.6979  -0.6491  -0.6238
    -0.5850  -0.5288  -0.5228  -0.4925  -0.4727  -0.4447  -0.3343  -0.2019
    -0.0045   0.0516   0.1054   0.1532   0.2438   0.2915   0.4672   0.4874
     0.7379   0.9475   0.9550   1.8916   2.9689   4.0526   4.7879   7.5265
     8.1151   8.4283

          k = 0.0000 0.2888 0.0000 ( 10871 PWs)   bands (ev):

   -42.7450  -2.3274  -2.0608  -1.9015  -1.8149  -1.6864  -1.5776  -1.4553
    -1.3580  -1.1746  -1.0628  -0.9182  -0.7704  -0.6395  -0.5945  -0.5547
    -0.4623  -0.3787  -0.3553  -0.2226  -0.1476  -0.0831  -0.0622   0.0533
     0.0862   0.1055   0.2350   0.2520   0.2942   0.4240   0.5393   0.7601
     0.8221   0.9833   1.8364   3.0630   4.1644   5.3558   6.6099   8.4894
     9.0994   9.4143

          k = 0.0000 0.4332 0.0000 ( 10791 PWs)   bands (ev):

   -42.7370  -2.2176  -2.1797  -2.0663  -2.0270  -1.9538  -1.8534  -1.8005
    -1.6844  -1.4090  -1.0988  -0.9099  -0.7722  -0.6917  -0.5458  -0.4630
    -0.2732  -0.1479  -0.0423   0.2227   0.2839   0.5206   0.5398   0.7013
     0.7215   0.7237   0.8001   0.8222   0.8608   0.9079   1.0429   1.5521
     1.8965   2.3540   3.3375   4.5269   5.6786   7.0227   8.2828   8.8133
     9.3065   9.9918

          k = 0.0000-0.5775 0.0000 ( 10736 PWs)   bands (ev):

   -42.7336  -2.3495  -2.2928  -2.2032  -2.1614  -2.0389  -1.9814  -1.9423
    -1.8268  -1.5383  -1.1716  -0.9892  -0.8651  -0.7618  -0.5189  -0.3573
    -0.1783  -0.0779   0.1621   0.2361   0.5173   0.6289   0.7473   0.8910
     0.9861   0.9984   1.0209   1.0219   1.1018   1.1322   1.1822   3.7063
     4.1057   4.5083   4.9021   5.1732   5.3436   5.5020   7.6958   8.2338
     8.6002   8.8934

          k = 0.1251-0.0721 0.0000 ( 10876 PWs)   bands (ev):

   -42.7528  -3.2071  -2.7589  -2.2102  -2.1020  -2.0068  -1.8865  -1.1498
    -1.0307  -0.9458  -0.8776  -0.8536  -0.8054  -0.6979  -0.6491  -0.6238
    -0.5850  -0.5288  -0.5228  -0.4925  -0.4727  -0.4446  -0.3343  -0.2019
    -0.0045   0.0516   0.1054   0.1532   0.2438   0.2915   0.4672   0.4874
     0.7379   0.9475   0.9550   1.8916   2.9689   4.0526   4.7879   7.5265
     8.1152   8.4283

          k = 0.1251 0.0723 0.0000 ( 10875 PWs)   bands (ev):

   -42.7528  -3.2071  -2.7589  -2.2102  -2.1021  -2.0068  -1.8865  -1.1498
    -1.0307  -0.9458  -0.8777  -0.8536  -0.8053  -0.6979  -0.6491  -0.6237
    -0.5851  -0.5287  -0.5228  -0.4925  -0.4727  -0.4447  -0.3344  -0.2018
    -0.0046   0.0516   0.1054   0.1531   0.2438   0.2914   0.4672   0.4874
     0.7379   0.9476   0.9551   1.8917   2.9689   4.0525   4.7879   7.5268
     8.1109   8.4361

          k = 0.1251 0.2167 0.0000 ( 10868 PWs)   bands (ev):

   -42.7473  -2.4994  -2.1499  -1.7126  -1.6984  -1.6246  -1.5049  -1.3207
    -1.2444  -1.2116  -1.1316  -1.0203  -0.9455  -0.8437  -0.8081  -0.6176
    -0.6085  -0.5150  -0.4707  -0.3987  -0.3415  -0.1823  -0.1086  -0.0835
     0.0049   0.0752   0.1920   0.2518   0.3791   0.3884   0.4758   0.6528
     0.7996   0.8695   1.6198   2.7461   3.8216   4.9643   6.0866   8.1848
     8.7683   9.0928

          k = 0.1251 0.3611 0.0000 ( 10820 PWs)   bands (ev):

   -42.7393  -1.9662  -1.8536  -1.7938  -1.7306  -1.6639  -1.6026  -1.5138
    -1.3429  -1.2946  -1.1326  -0.9896  -0.8937  -0.7622  -0.6925  -0.5842
    -0.5260  -0.4580  -0.2912  -0.2359  -0.1605  -0.0435   0.0808   0.1634
     0.2434   0.4548   0.4937   0.7340   0.7610   0.8152   0.9679   1.4070
     1.5206   1.9382   2.9080   4.0952   5.2079   6.5024   7.9726   9.3646
    10.0950  10.4342

          k = 0.1251-0.6496 0.0000 ( 10762 PWs)   bands (ev):

   -42.7336  -2.1525  -2.0835  -2.0114  -1.9218  -1.8394  -1.7941  -1.7166
    -1.5684  -1.4500  -1.2152  -1.0210  -0.8216  -0.7211  -0.6231  -0.4913
    -0.3978  -0.1058  -0.0339   0.0330   0.3016   0.3487   0.4652   0.5426
     0.6334   0.6892   0.7430   0.8455   0.9569   0.9989   1.1372   3.4924
     3.7353   4.1469   4.8546   5.6646   6.4960   7.1234   8.0310   8.3054
     8.7206   9.4205

          k = 0.1251-0.5052 0.0000 ( 10760 PWs)   bands (ev):

   -42.7336  -2.1525  -2.0835  -2.0114  -1.9218  -1.8394  -1.7941  -1.7166
    -1.5684  -1.4501  -1.2152  -1.0210  -0.8216  -0.7211  -0.6231  -0.4912
    -0.3978  -0.1057  -0.0339   0.0329   0.3017   0.3488   0.4652   0.5426
     0.6334   0.6892   0.7430   0.8456   0.9569   0.9990   1.1372   3.4923
     3.7353   4.1468   4.8546   5.6646   6.4960   7.1234   8.0310   8.3059
     8.7207   9.4204

          k = 0.1251-0.3608 0.0000 ( 10818 PWs)   bands (ev):

   -42.7393  -1.9661  -1.8536  -1.7938  -1.7306  -1.6639  -1.6026  -1.5138
    -1.3429  -1.2947  -1.1326  -0.9896  -0.8937  -0.7621  -0.6924  -0.5842
    -0.5260  -0.4579  -0.2911  -0.2358  -0.1605  -0.0434   0.0808   0.1635
     0.2434   0.4548   0.4936   0.7340   0.7610   0.8152   0.9678   1.4070
     1.5205   1.9381   2.9079   4.0950   5.2080   6.5025   7.9726   9.3632
    10.1205  10.3838

          k = 0.1251-0.2164 0.0000 ( 10863 PWs)   bands (ev):

   -42.7472  -2.4994  -2.1499  -1.7126  -1.6983  -1.6246  -1.5049  -1.3207
    -1.2444  -1.2116  -1.1316  -1.0203  -0.9454  -0.8438  -0.8081  -0.6176
    -0.6085  -0.5150  -0.4707  -0.3987  -0.3414  -0.1822  -0.1085  -0.0835
     0.0049   0.0752   0.1920   0.2519   0.3791   0.3885   0.4758   0.6528
     0.7996   0.8695   1.6197   2.7459   3.8216   4.9644   6.0866   8.1834
     8.7873   9.0590

          k = 0.2502-0.1441 0.0000 ( 10871 PWs)   bands (ev):

   -42.7450  -2.3274  -2.0608  -1.9015  -1.8149  -1.6864  -1.5776  -1.4553
    -1.3580  -1.1746  -1.0628  -0.9182  -0.7704  -0.6395  -0.5945  -0.5547
    -0.4623  -0.3787  -0.3553  -0.2226  -0.1476  -0.0831  -0.0622   0.0533
     0.0862   0.1055   0.2350   0.2520   0.2942   0.4240   0.5393   0.7601
     0.8221   0.9833   1.8364   3.0630   4.1644   5.3558   6.6099   8.4894
     9.0994   9.4144

          k = 0.2502 0.0003 0.0000 ( 10868 PWs)   bands (ev):

   -42.7473  -2.4994  -2.1499  -1.7126  -1.6984  -1.6246  -1.5049  -1.3207
    -1.2444  -1.2116  -1.1316  -1.0203  -0.9455  -0.8437  -0.8081  -0.6176
    -0.6085  -0.5150  -0.4707  -0.3987  -0.3415  -0.1823  -0.1086  -0.0835
     0.0049   0.0752   0.1920   0.2518   0.3791   0.3884   0.4758   0.6528
     0.7996   0.8695   1.6198   2.7461   3.8216   4.9643   6.0866   8.1848
     8.7682   9.0927

          k = 0.2502 0.1447 0.0000 ( 10860 PWs)   bands (ev):

   -42.7450  -2.3274  -2.0608  -1.9015  -1.8150  -1.6864  -1.5777  -1.4553
    -1.3580  -1.1746  -1.0627  -0.9182  -0.7703  -0.6395  -0.5944  -0.5547
    -0.4623  -0.3786  -0.3554  -0.2226  -0.1476  -0.0830  -0.0622   0.0533
     0.0863   0.1055   0.2351   0.2521   0.2942   0.4239   0.5393   0.7602
     0.8222   0.9833   1.8366   3.0633   4.1644   5.3557   6.6099   8.4903
     9.0891   9.4327

          k = 0.2502 0.2890 0.0000 ( 10819 PWs)   bands (ev):

   -42.7393  -1.9662  -1.8536  -1.7938  -1.7307  -1.6639  -1.6026  -1.5139
    -1.3429  -1.2946  -1.1326  -0.9896  -0.8937  -0.7622  -0.6924  -0.5842
    -0.5259  -0.4579  -0.2912  -0.2358  -0.1605  -0.0434   0.0808   0.1634
     0.2434   0.4548   0.4937   0.7340   0.7609   0.8152   0.9679   1.4070
     1.5205   1.9382   2.9082   4.0954   5.2079   6.5023   7.9728   9.3648
    10.0960  10.4217

          k = 0.2502-0.7216 0.0000 ( 10755 PWs)   bands (ev):

   -42.7336  -1.8595  -1.8327  -1.6951  -1.6473  -1.5234  -1.4367  -1.3864
    -1.2567  -1.2287  -1.2167  -1.0538  -0.9592  -0.8574  -0.7436  -0.6010
    -0.5402  -0.4403  -0.3623  -0.2712  -0.1155  -0.0500   0.0982   0.1661
     0.2533   0.3364   0.5122   0.8086   0.9782   1.0167   1.1383   3.3961
     3.6144   4.0884   4.9183   5.9141   7.0566   8.3330   8.7651   9.6207
     9.7860   9.9364

          k = 0.2502-0.5773 0.0000 ( 10783 PWs)   bands (ev):

   -42.7314  -1.9170  -1.7082  -1.6768  -1.6025  -1.5426  -1.4713  -1.4215
    -1.3616  -1.2042  -1.1558  -1.0905  -0.9468  -0.8172  -0.7960  -0.5924
    -0.4920  -0.4128  -0.2842  -0.1588  -0.0960  -0.0302   0.1773   0.2910
     0.3603   0.4269   0.6654   0.7833   0.8431   0.9424   0.9833   5.4704
     6.1504   6.2311   6.3152   6.6370   7.1027   7.7113   7.9322   8.4168
     9.1290   9.3963

          k = 0.2502-0.4329 0.0000 ( 10756 PWs)   bands (ev):

   -42.7336  -1.8595  -1.8327  -1.6952  -1.6474  -1.5234  -1.4367  -1.3865
    -1.2567  -1.2287  -1.2166  -1.0539  -0.9592  -0.8575  -0.7435  -0.6009
    -0.5402  -0.4403  -0.3623  -0.2712  -0.1155  -0.0500   0.0984   0.1661
     0.2532   0.3364   0.5122   0.8086   0.9782   1.0167   1.1383   3.3961
     3.6144   4.0882   4.9179   5.9137   7.0566   8.3337   8.7658   9.6205
     9.7860   9.9371

          k = 0.2502-0.2885 0.0000 ( 10818 PWs)   bands (ev):

   -42.7393  -1.9661  -1.8536  -1.7938  -1.7306  -1.6639  -1.6026  -1.5138
    -1.3429  -1.2947  -1.1326  -0.9896  -0.8937  -0.7621  -0.6924  -0.5842
    -0.5260  -0.4579  -0.2911  -0.2358  -0.1605  -0.0434   0.0808   0.1635
     0.2434   0.4548   0.4936   0.7340   0.7610   0.8152   0.9678   1.4070
     1.5205   1.9381   2.9079   4.0950   5.2080   6.5025   7.9726   9.3632
    10.1205  10.3836

          k = 0.3754-0.2162 0.0000 ( 10791 PWs)   bands (ev):

   -42.7370  -2.2176  -2.1797  -2.0663  -2.0270  -1.9538  -1.8534  -1.8005
    -1.6844  -1.4090  -1.0988  -0.9099  -0.7722  -0.6916  -0.5458  -0.4630
    -0.2732  -0.1479  -0.0423   0.2227   0.2839   0.5206   0.5398   0.7013
     0.7215   0.7237   0.8001   0.8222   0.8608   0.9079   1.0429   1.5521
     1.8965   2.3540   3.3375   4.5269   5.6786   7.0227   8.2828   8.8133
     9.3065   9.9918

          k = 0.3754-0.0718 0.0000 ( 10820 PWs)   bands (ev):

   -42.7393  -1.9662  -1.8536  -1.7938  -1.7306  -1.6639  -1.6026  -1.5138
    -1.3429  -1.2946  -1.1326  -0.9896  -0.8937  -0.7622  -0.6925  -0.5842
    -0.5260  -0.4580  -0.2912  -0.2359  -0.1605  -0.0435   0.0808   0.1634
     0.2434   0.4548   0.4937   0.7340   0.7610   0.8152   0.9679   1.4070
     1.5206   1.9382   2.9080   4.0952   5.2079   6.5024   7.9726   9.3646
    10.0950  10.4346

          k = 0.3754 0.0726 0.0000 ( 10819 PWs)   bands (ev):

   -42.7393  -1.9662  -1.8536  -1.7938  -1.7307  -1.6639  -1.6026  -1.5139
    -1.3429  -1.2946  -1.1326  -0.9896  -0.8937  -0.7622  -0.6924  -0.5842
    -0.5259  -0.4579  -0.2912  -0.2358  -0.1605  -0.0434   0.0808   0.1634
     0.2434   0.4548   0.4937   0.7340   0.7609   0.8152   0.9679   1.4070
     1.5205   1.9382   2.9082   4.0954   5.2079   6.5023   7.9728   9.3648
    10.0959  10.4216

          k = 0.3754 0.2170 0.0000 ( 10794 PWs)   bands (ev):

   -42.7370  -2.2176  -2.1797  -2.0664  -2.0271  -1.9538  -1.8535  -1.8005
    -1.6844  -1.4090  -1.0987  -0.9098  -0.7722  -0.6916  -0.5457  -0.4630
    -0.2732  -0.1481  -0.0422   0.2226   0.2838   0.5206   0.5397   0.7014
     0.7215   0.7237   0.8001   0.8223   0.8608   0.9079   1.0429   1.5521
     1.8965   2.3540   3.3378   4.5277   5.6787   7.0225   8.2832   8.8135
     9.3069   9.9920

          k = 0.3754-0.7937 0.0000 ( 10771 PWs)   bands (ev):

   -42.7337  -2.1525  -2.0835  -2.0115  -1.9219  -1.8394  -1.7941  -1.7168
    -1.5684  -1.4501  -1.2152  -1.0210  -0.8216  -0.7212  -0.6231  -0.4912
    -0.3979  -0.1057  -0.0339   0.0329   0.3017   0.3487   0.4652   0.5426
     0.6334   0.6892   0.7429   0.8456   0.9569   0.9989   1.1372   3.4921
     3.7351   4.1469   4.8554   5.6658   6.4964   7.1233   8.0312   8.3047
     8.7207   9.4205

          k = 0.3754-0.6493 0.0000 ( 10768 PWs)   bands (ev):

   -42.7313  -1.9170  -1.7082  -1.6768  -1.6025  -1.5425  -1.4711  -1.4214
    -1.3615  -1.2042  -1.1557  -1.0905  -0.9469  -0.8171  -0.7961  -0.5924
    -0.4920  -0.4128  -0.2842  -0.1589  -0.0960  -0.0302   0.1774   0.2911
     0.3604   0.4270   0.6654   0.7834   0.8431   0.9425   0.9833   5.4702
     6.1504   6.2321   6.3158   6.6366   7.1024   7.7109   7.9320   8.4172
     9.1295   9.3962

          k = 0.3754-0.5049 0.0000 ( 10783 PWs)   bands (ev):

   -42.7314  -1.9170  -1.7082  -1.6768  -1.6025  -1.5426  -1.4713  -1.4215
    -1.3616  -1.2042  -1.1558  -1.0905  -0.9468  -0.8172  -0.7960  -0.5924
    -0.4920  -0.4128  -0.2842  -0.1588  -0.0960  -0.0302   0.1773   0.2910
     0.3603   0.4269   0.6654   0.7833   0.8431   0.9424   0.9833   5.4704
     6.1504   6.2311   6.3152   6.6370   7.1027   7.7112   7.9322   8.4168
     9.1290   9.3962

          k = 0.3754-0.3605 0.0000 ( 10760 PWs)   bands (ev):

   -42.7336  -2.1525  -2.0835  -2.0114  -1.9218  -1.8394  -1.7941  -1.7166
    -1.5684  -1.4501  -1.2152  -1.0210  -0.8216  -0.7211  -0.6231  -0.4912
    -0.3978  -0.1057  -0.0339   0.0329   0.3017   0.3488   0.4652   0.5426
     0.6334   0.6892   0.7430   0.8456   0.9569   0.9990   1.1372   3.4923
     3.7353   4.1468   4.8546   5.6646   6.4960   7.1234   8.0311   8.3059
     8.7208   9.4205

          k =-0.5005 0.2882 0.0000 ( 10736 PWs)   bands (ev):

   -42.7336  -2.3495  -2.2928  -2.2032  -2.1614  -2.0389  -1.9814  -1.9423
    -1.8268  -1.5383  -1.1715  -0.9892  -0.8651  -0.7618  -0.5189  -0.3573
    -0.1783  -0.0779   0.1621   0.2361   0.5173   0.6289   0.7473   0.8910
     0.9861   0.9984   1.0209   1.0219   1.1018   1.1322   1.1822   3.7063
     4.1057   4.5083   4.9021   5.1732   5.3436   5.5020   7.6958   8.2338
     8.6002   8.8940

          k =-0.5005 0.4326 0.0000 ( 10762 PWs)   bands (ev):

   -42.7336  -2.1525  -2.0835  -2.0114  -1.9218  -1.8394  -1.7941  -1.7166
    -1.5684  -1.4500  -1.2152  -1.0210  -0.8216  -0.7211  -0.6231  -0.4913
    -0.3978  -0.1058  -0.0339   0.0330   0.3016   0.3487   0.4652   0.5426
     0.6334   0.6892   0.7430   0.8455   0.9569   0.9989   1.1372   3.4924
     3.7353   4.1469   4.8546   5.6646   6.4960   7.1234   8.0310   8.3054
     8.7207   9.4206

          k =-0.5005 0.5770 0.0000 ( 10755 PWs)   bands (ev):

   -42.7336  -1.8595  -1.8327  -1.6951  -1.6473  -1.5234  -1.4367  -1.3864
    -1.2567  -1.2287  -1.2167  -1.0538  -0.9592  -0.8574  -0.7436  -0.6010
    -0.5402  -0.4403  -0.3623  -0.2712  -0.1155  -0.0500   0.0982   0.1661
     0.2533   0.3364   0.5122   0.8086   0.9782   1.0167   1.1383   3.3961
     3.6144   4.0884   4.9183   5.9141   7.0566   8.3330   8.7651   9.6207
     9.7860   9.9364

          k =-0.5005 0.7214 0.0000 ( 10771 PWs)   bands (ev):

   -42.7337  -2.1525  -2.0835  -2.0115  -1.9219  -1.8394  -1.7941  -1.7168
    -1.5684  -1.4501  -1.2152  -1.0210  -0.8216  -0.7212  -0.6231  -0.4912
    -0.3979  -0.1057  -0.0339   0.0329   0.3017   0.3487   0.4652   0.5426
     0.6334   0.6892   0.7429   0.8456   0.9569   0.9989   1.1372   3.4921
     3.7351   4.1469   4.8554   5.6658   6.4964   7.1233   8.0312   8.3048
     8.7207   9.4208

          k =-0.5005-0.2893 0.0000 ( 10756 PWs)   bands (ev):

   -42.7337  -2.3495  -2.2928  -2.2033  -2.1614  -2.0389  -1.9816  -1.9423
    -1.8269  -1.5384  -1.1716  -0.9891  -0.8650  -0.7618  -0.5190  -0.3573
    -0.1785  -0.0779   0.1620   0.2360   0.5173   0.6289   0.7473   0.8910
     0.9861   0.9983   1.0208   1.0219   1.1017   1.1321   1.1822   3.7056
     4.1044   4.5085   4.9033   5.1753   5.3447   5.5020   7.6960   8.2342
     8.5980   8.8941

     the Fermi energy is     3.9253 ev

!    total energy              =    -520.63629432 Ry
     estimated scf accuracy    <       0.00000050 Ry
     smearing contrib. (-TS)   =      -0.00215594 Ry
     internal energy E=F+TS    =    -520.63413838 Ry

     The total energy is F=E-TS. E is the sum of the following terms:
     one-electron contribution =   -6614.94140845 Ry
     hartree contribution      =    3358.91466133 Ry
     xc contribution           =    -137.63608815 Ry
     ewald contribution        =    2873.22168105 Ry
     DFT-D3 Dispersion         =      -0.19298416 Ry

     convergence has been achieved in  13 iterations

     negative rho (up, down):  8.288E-06 0.000E+00

     Forces acting on atoms (cartesian axes, Ry/au):

     atom    1 type  2   force =    -0.00001586   -0.00001190    0.00039409
     atom    2 type  2   force =    -0.00025759   -0.00014889    0.00592785
     atom    3 type  2   force =     0.00005824    0.00003268   -0.00132534
     atom    4 type  2   force =     0.00016861    0.00009868   -0.00384162
     atom    5 type  2   force =    -0.00011201   -0.00006522    0.00260997
     atom    6 type  2   force =     0.00031300    0.00018445   -0.00634718
     atom    7 type  1   force =    -0.00015440   -0.00008978    0.00258222
     The non-local contrib.  to forces
     atom    1 type  2   force =     0.00270660    0.00156213   -0.06191027
     atom    2 type  2   force =     0.00147415    0.00085077   -0.03368810
     atom    3 type  2   force =    -0.00004717   -0.00002888    0.00102889
     atom    4 type  2   force =     0.00005631    0.00003523   -0.00136198
     atom    5 type  2   force =    -0.00048652   -0.00028144    0.01131545
     atom    6 type  2   force =    -0.00037650   -0.00021743    0.00634950
     atom    7 type  1   force =    -0.00235280   -0.00136184    0.05365920
     The ionic contribution  to forces
     atom    1 type  2   force =     7.13504228    4.12466959 -163.17266068
     atom    2 type  2   force =     4.43399653    2.56323228 -101.40192350
     atom    3 type  2   force =     1.71302273    0.99027484  -39.17544805
     atom    4 type  2   force =    -1.00965049   -0.58366290   23.08983571
     atom    5 type  2   force =    -3.75808005   -2.17249691   85.94430345
     atom    6 type  2   force =    -6.44158716   -3.72379224  147.32880055
     atom    7 type  1   force =    -2.07274384   -1.19822465   47.38709252
     The local contribution  to forces
     atom    1 type  2   force =    -7.13733461   -4.12599269  163.22511527
     atom    2 type  2   force =    -4.43563947   -2.56418286  101.43947351
     atom    3 type  2   force =    -1.71296161   -0.99023946   39.17410782
     atom    4 type  2   force =     1.00973473    0.58371148  -23.09167398
     atom    5 type  2   force =     3.75826861    2.17260667  -85.94879438
     atom    6 type  2   force =     6.44227350    3.72418331 -147.34129244
     atom    7 type  1   force =     2.07485951    1.19944951  -47.43624992
     The core correction contribution to forces
     atom    1 type  2   force =    -0.00024501   -0.00014149    0.00560391
     atom    2 type  2   force =     0.00000911    0.00000516   -0.00020775
     atom    3 type  2   force =    -0.00000079   -0.00000050    0.00001902
     atom    4 type  2   force =    -0.00002845   -0.00001650    0.00065324
     atom    5 type  2   force =     0.00004566    0.00002638   -0.00104101
     atom    6 type  2   force =    -0.00015661   -0.00009105    0.00346839
     atom    7 type  1   force =     0.00000000    0.00000000    0.00000000
     The Hubbard contrib.    to forces
     atom    1 type  2   force =     0.00000000    0.00000000    0.00000000
     atom    2 type  2   force =     0.00000000    0.00000000    0.00000000
     atom    3 type  2   force =     0.00000000    0.00000000    0.00000000
     atom    4 type  2   force =     0.00000000    0.00000000    0.00000000
     atom    5 type  2   force =     0.00000000    0.00000000    0.00000000
     atom    6 type  2   force =     0.00000000    0.00000000    0.00000000
     atom    7 type  1   force =     0.00000000    0.00000000    0.00000000
     The SCF correction term to forces
     atom    1 type  2   force =     0.00003859    0.00002022   -0.00090983
     atom    2 type  2   force =     0.00006518    0.00004040   -0.00149624
     atom    3 type  2   force =     0.00007324    0.00004330   -0.00171693
     atom    4 type  2   force =     0.00006167    0.00003470   -0.00145284
     atom    5 type  2   force =     0.00004838    0.00002727   -0.00111212
     atom    6 type  2   force =    -0.00002648   -0.00000546    0.00048177
     atom    7 type  1   force =    -0.00002273   -0.00001343    0.00051749

     DFT-D3 dispersion contribution to forces:
     atom    1 type  2   force =    -0.00021848   -0.00012630    0.00499650
     atom    2 type  2   force =    -0.00015789   -0.00009127    0.00361074
     atom    3 type  2   force =    -0.00002294   -0.00001326    0.00052472
     atom    4 type  2   force =     0.00000005    0.00000002   -0.00000097
     atom    5 type  2   force =     0.00009713    0.00005616   -0.00222061
     atom    6 type  2   force =     0.00019145    0.00011067   -0.00431413
     atom    7 type  1   force =     0.00011068    0.00006398   -0.00259625

     Total force =     0.010290     Total SCF correction =     0.003144
     SCF correction compared to forces is large: reduce conv_thr to get better values


     Computing stress (Cartesian axis) and pressure


     negative rho (up, down):  8.288E-06 0.000E+00
          total   stress  (Ry/bohr**3)                   (kbar)     P=      -11.06
  -0.00005848  -0.00000012   0.00000210           -8.60       -0.02        0.31
  -0.00000012  -0.00005834   0.00000121           -0.02       -8.58        0.18
   0.00000210   0.00000121  -0.00010870            0.31        0.18      -15.99


     BFGS Geometry Optimization
     Energy error            =      0.0E+00 Ry
     Gradient error          =      6.3E-03 Ry/Bohr

     number of scf cycles    =   1
     number of bfgs steps    =   0

     energy             new  =    -520.6362943220 Ry

     new trust radius        =       0.0063575664 bohr
     new conv_thr            =       0.0000010000 Ry


ATOMIC_POSITIONS (angstrom)
Ag            1.9495883053        0.5683184472       10.1269925370
Ag            1.8441267239        2.1834847125       12.5388167107
Ag            3.1914559357        1.2862259305       14.9438743212
Ag            1.6392288174        0.3889059920       17.2246546066
Ag            1.5351539879        2.0048750609       19.6046869892
Ag            2.8810734706        1.1068029949       22.0425331893
Li            1.3428357981        1.8936975540       24.0472584253



     Writing config-only to output data dir ./Ag_mp-124_111_hollow_0/Ag_mp-124_111_hollow_0.save/
     NEW-OLD atomic charge density approx. for the potential

     negative rho (up, down):  8.425E-06 0.000E+00

     total cpu time spent up to now is       16.6 secs

     per-process dynamical memory:   187.8 Mb

     Self-consistent Calculation

     iteration #  1     ecut=    55.00 Ry     beta= 0.30
     Davidson diagonalization with overlap
     ethr =  1.00E-06,  avg # of iterations =  3.0

     negative rho (up, down):  8.382E-06 0.000E+00

     total cpu time spent up to now is       17.2 secs

     total energy              =    -520.63584203 Ry
     estimated scf accuracy    <       0.00111231 Ry

     iteration #  2     ecut=    55.00 Ry     beta= 0.30
     Davidson diagonalization with overlap
     ethr =  1.61E-06,  avg # of iterations = 11.5

     negative rho (up, down):  8.396E-06 0.000E+00

     total cpu time spent up to now is       18.0 secs

     total energy              =    -520.63068380 Ry
     estimated scf accuracy    <       0.41631161 Ry

     iteration #  3     ecut=    55.00 Ry     beta= 0.30
     Davidson diagonalization with overlap
     ethr =  1.61E-06,  avg # of iterations = 10.4

     negative rho (up, down):  8.457E-06 0.000E+00

     total cpu time spent up to now is       18.6 secs

     total energy              =    -520.63629035 Ry
     estimated scf accuracy    <       0.00346286 Ry

     iteration #  4     ecut=    55.00 Ry     beta= 0.30
     Davidson diagonalization with overlap
     ethr =  1.61E-06,  avg # of iterations =  1.6

     negative rho (up, down):  8.463E-06 0.000E+00

     total cpu time spent up to now is       19.0 secs

     total energy              =    -520.63639152 Ry
     estimated scf accuracy    <       0.00002990 Ry

     iteration #  5     ecut=    55.00 Ry     beta= 0.30
     Davidson diagonalization with overlap
     ethr =  4.33E-08,  avg # of iterations =  1.9

     negative rho (up, down):  8.420E-06 0.000E+00

     total cpu time spent up to now is       19.4 secs

     total energy              =    -520.63639282 Ry
     estimated scf accuracy    <       0.00000349 Ry

     iteration #  6     ecut=    55.00 Ry     beta= 0.30
     Davidson diagonalization with overlap
     ethr =  5.06E-09,  avg # of iterations =  3.1

     negative rho (up, down):  8.380E-06 0.000E+00

     total cpu time spent up to now is       19.8 secs

     End of self-consistent calculation

          k = 0.0000 0.0000 0.0000 ( 10919 PWs)   bands (ev):

   -42.7608  -3.6208  -3.1541  -2.5817  -2.3579  -2.2907  -2.1940  -0.9983
    -0.8277  -0.8174  -0.8174  -0.7980  -0.7518  -0.7518  -0.7280  -0.7280
    -0.6609  -0.6609  -0.6348  -0.6348  -0.5385  -0.5385  -0.1579   0.1356
     0.1358   0.2048   0.2049   0.2391   0.2392   0.4741   0.4741   0.7233
     0.7234   0.9290   0.9291   1.0286   2.2543   3.5027   3.9613   7.1871
     7.7855   8.1332

          k = 0.0000 0.1444 0.0000 ( 10876 PWs)   bands (ev):

   -42.7575  -3.2098  -2.7615  -2.2113  -2.1036  -2.0092  -1.8864  -1.1493
    -1.0333  -0.9477  -0.8798  -0.8549  -0.8053  -0.6979  -0.6508  -0.6242
    -0.5863  -0.5297  -0.5246  -0.4936  -0.4743  -0.4450  -0.3353  -0.2015
    -0.0055   0.0515   0.1051   0.1523   0.2437   0.2917   0.4649   0.4879
     0.7364   0.9469   0.9537   1.8908   2.9673   4.0501   4.7866   7.5269
     8.1268   8.4311

          k = 0.0000 0.2888 0.0000 ( 10871 PWs)   bands (ev):

   -42.7498  -2.3298  -2.0632  -1.9034  -1.8166  -1.6881  -1.5783  -1.4574
    -1.3593  -1.1763  -1.0638  -0.9191  -0.7698  -0.6401  -0.5956  -0.5566
    -0.4628  -0.3791  -0.3577  -0.2228  -0.1488  -0.0834  -0.0633   0.0523
     0.0850   0.1058   0.2343   0.2513   0.2939   0.4237   0.5391   0.7586
     0.8218   0.9827   1.8365   3.0609   4.1626   5.3545   6.6090   8.4900
     9.1056   9.4204

          k = 0.0000 0.4332 0.0000 ( 10791 PWs)   bands (ev):

   -42.7417  -2.2194  -2.1819  -2.0684  -2.0288  -1.9564  -1.8535  -1.8027
    -1.6852  -1.4097  -1.0983  -0.9107  -0.7730  -0.6937  -0.5461  -0.4653
    -0.2734  -0.1481  -0.0434   0.2237   0.2835   0.5196   0.5387   0.7013
     0.7206   0.7228   0.7991   0.8213   0.8597   0.9065   1.0423   1.5507
     1.8951   2.3547   3.3374   4.5234   5.6772   7.0220   8.2820   8.8123
     9.3050   9.9937

          k = 0.0000-0.5775 0.0000 ( 10736 PWs)   bands (ev):

   -42.7383  -2.3514  -2.2949  -2.2053  -2.1633  -2.0411  -1.9816  -1.9447
    -1.8274  -1.5387  -1.1704  -0.9907  -0.8659  -0.7638  -0.5213  -0.3571
    -0.1783  -0.0779   0.1612   0.2374   0.5163   0.6276   0.7472   0.8902
     0.9860   0.9984   1.0188   1.0211   1.1007   1.1312   1.1809   3.7048
     4.1047   4.5080   4.9002   5.1716   5.3423   5.5007   7.6951   8.2320
     8.5971   8.8955

          k = 0.1251-0.0721 0.0000 ( 10876 PWs)   bands (ev):

   -42.7575  -3.2098  -2.7615  -2.2113  -2.1036  -2.0092  -1.8864  -1.1493
    -1.0333  -0.9477  -0.8798  -0.8549  -0.8053  -0.6979  -0.6508  -0.6242
    -0.5863  -0.5297  -0.5246  -0.4936  -0.4743  -0.4450  -0.3353  -0.2015
    -0.0055   0.0515   0.1051   0.1523   0.2437   0.2917   0.4649   0.4879
     0.7364   0.9469   0.9537   1.8908   2.9673   4.0501   4.7866   7.5269
     8.1268   8.4310

          k = 0.1251 0.0723 0.0000 ( 10875 PWs)   bands (ev):

   -42.7575  -3.2098  -2.7615  -2.2113  -2.1036  -2.0093  -1.8864  -1.1493
    -1.0333  -0.9478  -0.8798  -0.8549  -0.8052  -0.6978  -0.6507  -0.6241
    -0.5864  -0.5296  -0.5246  -0.4936  -0.4743  -0.4450  -0.3353  -0.2014
    -0.0056   0.0515   0.1052   0.1522   0.2438   0.2917   0.4649   0.4878
     0.7364   0.9469   0.9538   1.8909   2.9673   4.0501   4.7866   7.5272
     8.1226   8.4390

          k = 0.1251 0.2167 0.0000 ( 10868 PWs)   bands (ev):

   -42.7520  -2.5020  -2.1525  -1.7142  -1.7001  -1.6271  -1.5058  -1.3212
    -1.2465  -1.2128  -1.1339  -1.0217  -0.9455  -0.8442  -0.8087  -0.6174
    -0.6103  -0.5169  -0.4714  -0.3985  -0.3420  -0.1830  -0.1092  -0.0835
     0.0032   0.0747   0.1911   0.2524   0.3791   0.3877   0.4746   0.6516
     0.7981   0.8693   1.6198   2.7444   3.8198   4.9627   6.0856   8.1853
     8.7763   9.0977

          k = 0.1251 0.3611 0.0000 ( 10820 PWs)   bands (ev):

   -42.7441  -1.9684  -1.8556  -1.7956  -1.7327  -1.6663  -1.6048  -1.5147
    -1.3432  -1.2966  -1.1331  -0.9904  -0.8942  -0.7639  -0.6936  -0.5855
    -0.5269  -0.4587  -0.2916  -0.2363  -0.1608  -0.0436   0.0802   0.1642
     0.2433   0.4536   0.4926   0.7333   0.7595   0.8143   0.9670   1.4062
     1.5191   1.9387   2.9081   4.0920   5.2064   6.5016   7.9718   9.3650
    10.0986  10.4396

          k = 0.1251-0.6496 0.0000 ( 10762 PWs)   bands (ev):

   -42.7384  -2.1546  -2.0855  -2.0134  -1.9240  -1.8414  -1.7965  -1.7171
    -1.5690  -1.4508  -1.2148  -1.0234  -0.8226  -0.7225  -0.6240  -0.4916
    -0.3985  -0.1067  -0.0333   0.0331   0.3010   0.3488   0.4646   0.5414
     0.6334   0.6879   0.7419   0.8450   0.9558   0.9982   1.1363   3.4912
     3.7337   4.1471   4.8531   5.6621   6.4948   7.1221   8.0303   8.3039
     8.7190   9.4219

          k = 0.1251-0.5052 0.0000 ( 10760 PWs)   bands (ev):

   -42.7384  -2.1547  -2.0855  -2.0134  -1.9240  -1.8414  -1.7965  -1.7171
    -1.5690  -1.4508  -1.2148  -1.0234  -0.8226  -0.7225  -0.6241  -0.4915
    -0.3985  -0.1066  -0.0333   0.0330   0.3011   0.3488   0.4646   0.5414
     0.6334   0.6879   0.7419   0.8450   0.9558   0.9982   1.1363   3.4912
     3.7337   4.1471   4.8531   5.6620   6.4948   7.1221   8.0303   8.3043
     8.7190   9.4218

          k = 0.1251-0.3608 0.0000 ( 10818 PWs)   bands (ev):

   -42.7441  -1.9684  -1.8556  -1.7956  -1.7327  -1.6663  -1.6048  -1.5147
    -1.3432  -1.2966  -1.1332  -0.9904  -0.8942  -0.7639  -0.6936  -0.5854
    -0.5269  -0.4585  -0.2915  -0.2362  -0.1608  -0.0436   0.0802   0.1642
     0.2433   0.4536   0.4926   0.7333   0.7595   0.8143   0.9670   1.4062
     1.5190   1.9386   2.9080   4.0919   5.2064   6.5017   7.9719   9.3637
    10.1234  10.3902

          k = 0.1251-0.2164 0.0000 ( 10863 PWs)   bands (ev):

   -42.7520  -2.5020  -2.1525  -1.7142  -1.7000  -1.6270  -1.5058  -1.3211
    -1.2464  -1.2128  -1.1339  -1.0218  -0.9454  -0.8442  -0.8087  -0.6175
    -0.6103  -0.5169  -0.4714  -0.3986  -0.3419  -0.1829  -0.1092  -0.0835
     0.0032   0.0747   0.1910   0.2524   0.3791   0.3877   0.4745   0.6516
     0.7981   0.8693   1.6197   2.7442   3.8198   4.9628   6.0856   8.1839
     8.7953   9.0639

          k = 0.2502-0.1441 0.0000 ( 10871 PWs)   bands (ev):

   -42.7498  -2.3298  -2.0632  -1.9034  -1.8166  -1.6881  -1.5783  -1.4574
    -1.3593  -1.1763  -1.0638  -0.9191  -0.7698  -0.6401  -0.5956  -0.5566
    -0.4628  -0.3791  -0.3577  -0.2228  -0.1488  -0.0834  -0.0633   0.0523
     0.0850   0.1058   0.2343   0.2513   0.2939   0.4237   0.5391   0.7586
     0.8218   0.9827   1.8365   3.0609   4.1626   5.3545   6.6090   8.4900
     9.1056   9.4204

          k = 0.2502 0.0003 0.0000 ( 10868 PWs)   bands (ev):

   -42.7520  -2.5020  -2.1525  -1.7142  -1.7001  -1.6271  -1.5058  -1.3212
    -1.2465  -1.2128  -1.1339  -1.0217  -0.9455  -0.8442  -0.8087  -0.6174
    -0.6103  -0.5169  -0.4714  -0.3985  -0.3420  -0.1830  -0.1092  -0.0835
     0.0032   0.0747   0.1911   0.2524   0.3791   0.3877   0.4746   0.6516
     0.7981   0.8693   1.6198   2.7444   3.8198   4.9627   6.0856   8.1853
     8.7763   9.0977

          k = 0.2502 0.1447 0.0000 ( 10860 PWs)   bands (ev):

   -42.7497  -2.3298  -2.0632  -1.9034  -1.8166  -1.6882  -1.5783  -1.4574
    -1.3593  -1.1763  -1.0637  -0.9191  -0.7697  -0.6401  -0.5956  -0.5566
    -0.4627  -0.3790  -0.3577  -0.2228  -0.1488  -0.0834  -0.0633   0.0523
     0.0851   0.1058   0.2343   0.2514   0.2939   0.4237   0.5390   0.7586
     0.8219   0.9828   1.8367   3.0612   4.1626   5.3544   6.6090   8.4908
     9.0954   9.4387

          k = 0.2502 0.2890 0.0000 ( 10819 PWs)   bands (ev):

   -42.7441  -1.9684  -1.8556  -1.7956  -1.7328  -1.6663  -1.6047  -1.5148
    -1.3433  -1.2966  -1.1332  -0.9904  -0.8942  -0.7639  -0.6936  -0.5855
    -0.5269  -0.4585  -0.2916  -0.2362  -0.1608  -0.0436   0.0802   0.1642
     0.2432   0.4536   0.4926   0.7333   0.7594   0.8143   0.9670   1.4062
     1.5190   1.9387   2.9082   4.0923   5.2064   6.5015   7.9720   9.3652
    10.0995  10.4274

          k = 0.2502-0.7216 0.0000 ( 10755 PWs)   bands (ev):

   -42.7383  -1.8614  -1.8351  -1.6974  -1.6494  -1.5250  -1.4391  -1.3883
    -1.2585  -1.2288  -1.2183  -1.0556  -0.9592  -0.8585  -0.7449  -0.6009
    -0.5414  -0.4406  -0.3631  -0.2713  -0.1147  -0.0505   0.0994   0.1671
     0.2522   0.3344   0.5112   0.8085   0.9774   1.0157   1.1374   3.3951
     3.6128   4.0888   4.9170   5.9110   7.0553   8.3323   8.7652   9.6196
     9.7846   9.9344

          k = 0.2502-0.5773 0.0000 ( 10783 PWs)   bands (ev):

   -42.7361  -1.9191  -1.7105  -1.6793  -1.6046  -1.5440  -1.4732  -1.4248
    -1.3615  -1.2058  -1.1579  -1.0922  -0.9469  -0.8166  -0.7966  -0.5924
    -0.4935  -0.4144  -0.2840  -0.1591  -0.0965  -0.0286   0.1766   0.2898
     0.3617   0.4271   0.6631   0.7827   0.8423   0.9418   0.9825   5.4702
     6.1484   6.2298   6.3136   6.6361   7.1022   7.7103   7.9299   8.4153
     9.1266   9.3943

          k = 0.2502-0.4329 0.0000 ( 10756 PWs)   bands (ev):

   -42.7383  -1.8614  -1.8351  -1.6975  -1.6494  -1.5251  -1.4391  -1.3883
    -1.2586  -1.2288  -1.2183  -1.0556  -0.9591  -0.8586  -0.7449  -0.6008
    -0.5415  -0.4406  -0.3631  -0.2713  -0.1148  -0.0505   0.0995   0.1671
     0.2522   0.3343   0.5112   0.8085   0.9774   1.0157   1.1374   3.3950
     3.6127   4.0887   4.9166   5.9107   7.0553   8.3330   8.7659   9.6193
     9.7844   9.9342

          k = 0.2502-0.2885 0.0000 ( 10818 PWs)   bands (ev):

   -42.7441  -1.9684  -1.8556  -1.7956  -1.7327  -1.6663  -1.6048  -1.5147
    -1.3432  -1.2966  -1.1332  -0.9904  -0.8942  -0.7639  -0.6936  -0.5854
    -0.5269  -0.4585  -0.2915  -0.2362  -0.1608  -0.0436   0.0802   0.1642
     0.2433   0.4536   0.4926   0.7333   0.7595   0.8143   0.9670   1.4062
     1.5190   1.9386   2.9080   4.0919   5.2064   6.5017   7.9719   9.3636
    10.1234  10.3902

          k = 0.3754-0.2162 0.0000 ( 10791 PWs)   bands (ev):

   -42.7417  -2.2194  -2.1819  -2.0684  -2.0288  -1.9564  -1.8535  -1.8027
    -1.6852  -1.4097  -1.0983  -0.9107  -0.7730  -0.6937  -0.5461  -0.4653
    -0.2734  -0.1481  -0.0434   0.2237   0.2835   0.5196   0.5387   0.7013
     0.7206   0.7228   0.7991   0.8213   0.8597   0.9065   1.0423   1.5507
     1.8951   2.3547   3.3374   4.5234   5.6772   7.0220   8.2820   8.8123
     9.3050   9.9937

          k = 0.3754-0.0718 0.0000 ( 10820 PWs)   bands (ev):

   -42.7441  -1.9684  -1.8556  -1.7956  -1.7327  -1.6663  -1.6048  -1.5147
    -1.3432  -1.2966  -1.1331  -0.9904  -0.8942  -0.7639  -0.6936  -0.5855
    -0.5269  -0.4587  -0.2916  -0.2363  -0.1608  -0.0436   0.0802   0.1642
     0.2433   0.4536   0.4926   0.7333   0.7595   0.8143   0.9670   1.4062
     1.5191   1.9387   2.9081   4.0920   5.2064   6.5016   7.9718   9.3650
    10.0986  10.4396

          k = 0.3754 0.0726 0.0000 ( 10819 PWs)   bands (ev):

   -42.7441  -1.9684  -1.8556  -1.7956  -1.7328  -1.6663  -1.6047  -1.5148
    -1.3433  -1.2966  -1.1332  -0.9904  -0.8942  -0.7639  -0.6936  -0.5855
    -0.5269  -0.4585  -0.2916  -0.2362  -0.1608  -0.0436   0.0802   0.1642
     0.2432   0.4536   0.4926   0.7333   0.7594   0.8143   0.9670   1.4062
     1.5190   1.9387   2.9082   4.0923   5.2064   6.5015   7.9720   9.3652
    10.0995  10.4274

          k = 0.3754 0.2170 0.0000 ( 10794 PWs)   bands (ev):

   -42.7417  -2.2194  -2.1819  -2.0684  -2.0289  -1.9564  -1.8537  -1.8027
    -1.6852  -1.4097  -1.0982  -0.9107  -0.7731  -0.6937  -0.5460  -0.4654
    -0.2734  -0.1482  -0.0433   0.2236   0.2834   0.5196   0.5386   0.7013
     0.7205   0.7228   0.7991   0.8213   0.8597   0.9065   1.0423   1.5507
     1.8951   2.3547   3.3378   4.5241   5.6773   7.0218   8.2823   8.8125
     9.3054   9.9937

          k = 0.3754-0.7937 0.0000 ( 10771 PWs)   bands (ev):

   -42.7384  -2.1547  -2.0855  -2.0134  -1.9240  -1.8415  -1.7965  -1.7173
    -1.5690  -1.4508  -1.2148  -1.0234  -0.8227  -0.7225  -0.6240  -0.4916
    -0.3986  -0.1066  -0.0333   0.0330   0.3011   0.3488   0.4647   0.5414
     0.6333   0.6879   0.7419   0.8450   0.9558   0.9982   1.1362   3.4910
     3.7335   4.1472   4.8538   5.6632   6.4951   7.1220   8.0304   8.3032
     8.7191   9.4219

          k = 0.3754-0.6493 0.0000 ( 10768 PWs)   bands (ev):

   -42.7361  -1.9191  -1.7105  -1.6792  -1.6046  -1.5439  -1.4731  -1.4247
    -1.3615  -1.2058  -1.1579  -1.0922  -0.9470  -0.8166  -0.7966  -0.5923
    -0.4935  -0.4144  -0.2840  -0.1592  -0.0965  -0.0286   0.1767   0.2899
     0.3617   0.4272   0.6631   0.7827   0.8423   0.9418   0.9825   5.4700
     6.1484   6.2308   6.3143   6.6357   7.1018   7.7099   7.9298   8.4157
     9.1271   9.3942

          k = 0.3754-0.5049 0.0000 ( 10783 PWs)   bands (ev):

   -42.7361  -1.9191  -1.7105  -1.6793  -1.6046  -1.5440  -1.4732  -1.4248
    -1.3615  -1.2058  -1.1579  -1.0922  -0.9469  -0.8166  -0.7966  -0.5924
    -0.4935  -0.4144  -0.2840  -0.1591  -0.0965  -0.0286   0.1766   0.2898
     0.3617   0.4271   0.6631   0.7827   0.8423   0.9418   0.9825   5.4702
     6.1484   6.2298   6.3136   6.6361   7.1022   7.7103   7.9299   8.4153
     9.1266   9.3943

          k = 0.3754-0.3605 0.0000 ( 10760 PWs)   bands (ev):

   -42.7384  -2.1547  -2.0855  -2.0134  -1.9240  -1.8414  -1.7965  -1.7171
    -1.5690  -1.4508  -1.2148  -1.0234  -0.8226  -0.7225  -0.6241  -0.4915
    -0.3985  -0.1066  -0.0333   0.0330   0.3011   0.3488   0.4646   0.5414
     0.6334   0.6879   0.7419   0.8450   0.9558   0.9982   1.1363   3.4912
     3.7337   4.1471   4.8531   5.6620   6.4948   7.1221   8.0303   8.3043
     8.7190   9.4218

          k =-0.5005 0.2882 0.0000 ( 10736 PWs)   bands (ev):

   -42.7383  -2.3514  -2.2949  -2.2053  -2.1633  -2.0411  -1.9816  -1.9447
    -1.8274  -1.5387  -1.1704  -0.9907  -0.8659  -0.7638  -0.5213  -0.3571
    -0.1783  -0.0779   0.1612   0.2374   0.5163   0.6276   0.7472   0.8902
     0.9860   0.9984   1.0188   1.0211   1.1007   1.1312   1.1809   3.7048
     4.1047   4.5080   4.9002   5.1716   5.3423   5.5007   7.6951   8.2320
     8.5971   8.8955

          k =-0.5005 0.4326 0.0000 ( 10762 PWs)   bands (ev):

   -42.7384  -2.1546  -2.0855  -2.0134  -1.9240  -1.8414  -1.7965  -1.7171
    -1.5690  -1.4508  -1.2148  -1.0234  -0.8226  -0.7225  -0.6240  -0.4916
    -0.3985  -0.1067  -0.0333   0.0331   0.3010   0.3488   0.4646   0.5414
     0.6334   0.6879   0.7419   0.8450   0.9558   0.9982   1.1363   3.4912
     3.7337   4.1471   4.8531   5.6621   6.4948   7.1221   8.0303   8.3039
     8.7190   9.4218

          k =-0.5005 0.5770 0.0000 ( 10755 PWs)   bands (ev):

   -42.7383  -1.8614  -1.8351  -1.6974  -1.6494  -1.5250  -1.4391  -1.3883
    -1.2585  -1.2288  -1.2183  -1.0556  -0.9592  -0.8585  -0.7449  -0.6009
    -0.5414  -0.4406  -0.3631  -0.2713  -0.1147  -0.0505   0.0994   0.1671
     0.2522   0.3344   0.5112   0.8085   0.9774   1.0157   1.1374   3.3951
     3.6128   4.0888   4.9170   5.9110   7.0553   8.3323   8.7652   9.6196
     9.7846   9.9344

          k =-0.5005 0.7214 0.0000 ( 10771 PWs)   bands (ev):

   -42.7384  -2.1547  -2.0855  -2.0134  -1.9240  -1.8415  -1.7965  -1.7173
    -1.5690  -1.4508  -1.2148  -1.0234  -0.8227  -0.7225  -0.6240  -0.4916
    -0.3986  -0.1066  -0.0333   0.0330   0.3011   0.3488   0.4647   0.5414
     0.6333   0.6879   0.7419   0.8450   0.9558   0.9982   1.1362   3.4910
     3.7335   4.1472   4.8538   5.6632   6.4951   7.1220   8.0304   8.3032
     8.7191   9.4219

          k =-0.5005-0.2893 0.0000 ( 10756 PWs)   bands (ev):

   -42.7384  -2.3514  -2.2949  -2.2054  -2.1634  -2.0411  -1.9818  -1.9447
    -1.8274  -1.5388  -1.1705  -0.9907  -0.8659  -0.7638  -0.5214  -0.3570
    -0.1785  -0.0780   0.1611   0.2373   0.5163   0.6276   0.7471   0.8902
     0.9861   0.9983   1.0188   1.0210   1.1006   1.1312   1.1809   3.7041
     4.1034   4.5082   4.9014   5.1736   5.3434   5.5008   7.6953   8.2323
     8.5948   8.8958

     the Fermi energy is     3.9238 ev

!    total energy              =    -520.63639323 Ry
     estimated scf accuracy    <       0.00000013 Ry
     smearing contrib. (-TS)   =      -0.00214577 Ry
     internal energy E=F+TS    =    -520.63424746 Ry

     The total energy is F=E-TS. E is the sum of the following terms:
     one-electron contribution =   -6617.51093525 Ry
     hartree contribution      =    3360.18901642 Ry
     xc contribution           =    -137.63564437 Ry
     ewald contribution        =    2874.51633787 Ry
     DFT-D3 Dispersion         =      -0.19302212 Ry

     convergence has been achieved in   6 iterations

     negative rho (up, down):  8.380E-06 0.000E+00

     Forces acting on atoms (cartesian axes, Ry/au):

     atom    1 type  2   force =    -0.00002686   -0.00001164    0.00059755
     atom    2 type  2   force =    -0.00023504   -0.00014261    0.00538515
     atom    3 type  2   force =     0.00003450    0.00002410   -0.00077048
     atom    4 type  2   force =     0.00014336    0.00008059   -0.00324465
     atom    5 type  2   force =    -0.00007695   -0.00004275    0.00176657
     atom    6 type  2   force =     0.00028989    0.00016609   -0.00569698
     atom    7 type  1   force =    -0.00012890   -0.00007378    0.00196284
     The non-local contrib.  to forces
     atom    1 type  2   force =     0.00270129    0.00156505   -0.06174998
     atom    2 type  2   force =     0.00148951    0.00085465   -0.03398639
     atom    3 type  2   force =    -0.00007441   -0.00003970    0.00172714
     atom    4 type  2   force =     0.00003929    0.00001896   -0.00084577
     atom    5 type  2   force =    -0.00045400   -0.00026019    0.01060443
     atom    6 type  2   force =    -0.00036101   -0.00021013    0.00634106
     atom    7 type  1   force =    -0.00233578   -0.00135157    0.05328544
     The ionic contribution  to forces
     atom    1 type  2   force =     7.13555448    4.12496651 -163.18437277
     atom    2 type  2   force =     4.43697262    2.56495159 -101.46999490
     atom    3 type  2   force =     1.71260247    0.99003285  -39.16582566
     atom    4 type  2   force =    -1.01128599   -0.58460957   23.12724799
     atom    5 type  2   force =    -3.75692176   -2.17182567   85.91801586
     atom    6 type  2   force =    -6.44447909   -3.72546584  147.39425002
     atom    7 type  1   force =    -2.07244273   -1.19804987   47.38067946
     The local contribution  to forces
     atom    1 type  2   force =    -7.13787682   -4.12630832  163.23748040
     atom    2 type  2   force =    -4.43855802   -2.56587022  101.50627430
     atom    3 type  2   force =    -1.71243405   -0.98993437   39.16200288
     atom    4 type  2   force =     1.01141840    0.58468677  -23.13024047
     atom    5 type  2   force =     3.75715578    2.17195872  -85.92351429
     atom    6 type  2   force =     6.44510544    3.72582764 -147.40561597
     atom    7 type  1   force =     2.07453893    1.19926311  -47.42935273
     The core correction contribution to forces
     atom    1 type  2   force =    -0.00024274   -0.00014031    0.00555057
     atom    2 type  2   force =     0.00000377    0.00000213   -0.00008566
     atom    3 type  2   force =     0.00000119    0.00000066   -0.00002844
     atom    4 type  2   force =    -0.00002474   -0.00001429    0.00056374
     atom    5 type  2   force =     0.00004057    0.00002326   -0.00092315
     atom    6 type  2   force =    -0.00015054   -0.00008700    0.00332122
     atom    7 type  1   force =     0.00000000    0.00000000    0.00000000
     The Hubbard contrib.    to forces
     atom    1 type  2   force =     0.00000000    0.00000000    0.00000000
     atom    2 type  2   force =     0.00000000    0.00000000    0.00000000
     atom    3 type  2   force =     0.00000000    0.00000000    0.00000000
     atom    4 type  2   force =     0.00000000    0.00000000    0.00000000
     atom    5 type  2   force =     0.00000000    0.00000000    0.00000000
     atom    6 type  2   force =     0.00000000    0.00000000    0.00000000
     atom    7 type  1   force =     0.00000000    0.00000000    0.00000000
     The SCF correction term to forces
     atom    1 type  2   force =     0.00006121    0.00003490   -0.00138361
     atom    2 type  2   force =     0.00002299    0.00001495   -0.00056043
     atom    3 type  2   force =    -0.00003226   -0.00001907    0.00075912
     atom    4 type  2   force =     0.00000130    0.00000138   -0.00002670
     atom    5 type  2   force =     0.00001331    0.00000941   -0.00032137
     atom    6 type  2   force =    -0.00001104   -0.00000637    0.00025609
     atom    7 type  1   force =     0.00000597    0.00000382   -0.00013540

     DFT-D3 dispersion contribution to forces:
     atom    1 type  2   force =    -0.00021805   -0.00012606    0.00498667
     atom    2 type  2   force =    -0.00015969   -0.00009231    0.00365195
     atom    3 type  2   force =    -0.00002222   -0.00001285    0.00050820
     atom    4 type  2   force =     0.00000131    0.00000075   -0.00002973
     atom    5 type  2   force =     0.00009537    0.00005513   -0.00218119
     atom    6 type  2   force =     0.00019236    0.00011120   -0.00433568
     atom    7 type  1   force =     0.00011093    0.00006413   -0.00260022

     Total force =     0.008953     Total SCF correction =     0.001732
     SCF correction compared to forces is large: reduce conv_thr to get better values


     Computing stress (Cartesian axis) and pressure


     negative rho (up, down):  8.380E-06 0.000E+00
          total   stress  (Ry/bohr**3)                   (kbar)     P=      -11.48
  -0.00006164  -0.00000012   0.00000206           -9.07       -0.02        0.30
  -0.00000012  -0.00006150   0.00000119           -0.02       -9.05        0.18
   0.00000206   0.00000119  -0.00011095            0.30        0.18      -16.32

     Energy error            =      9.9E-05 Ry
     Gradient error          =      5.7E-03 Ry/Bohr

     number of scf cycles    =   2
     number of bfgs steps    =   1

     energy             old  =    -520.6362943220 Ry
     energy             new  =    -520.6363932335 Ry

     CASE: energy            _new < energy            _old


     WARNING: bfgs curvature condition failed, Theta= 0.923
     new trust radius        =       0.0069933230 bohr
     new conv_thr            =       0.0000000100 Ry


ATOMIC_POSITIONS (angstrom)
Ag            1.9495719534        0.5683109813       10.1273594547
Ag            1.8439746272        2.1833929900       12.5423034441
Ag            3.1914798095        1.2862420005       14.9433392949
Ag            1.6393224558        0.3889589268       17.2225333257
Ag            1.5351020940        2.0048460049       19.6058812166
Ag            2.8812607057        1.1069106544       22.0388387900
Li            1.3427513933        1.8936491341       24.0485612534



     Writing config-only to output data dir ./Ag_mp-124_111_hollow_0/Ag_mp-124_111_hollow_0.save/
     NEW-OLD atomic charge density approx. for the potential

     negative rho (up, down):  8.558E-06 0.000E+00

     total cpu time spent up to now is       22.0 secs

     per-process dynamical memory:   187.8 Mb

     Self-consistent Calculation

     iteration #  1     ecut=    55.00 Ry     beta= 0.30
     Davidson diagonalization with overlap
     ethr =  1.00E-06,  avg # of iterations =  3.0

     Threshold (ethr) on eigenvalues was too large:
     Diagonalizing with lowered threshold

     Davidson diagonalization with overlap
     ethr =  2.18E-08,  avg # of iterations =  4.1

     negative rho (up, down):  8.517E-06 0.000E+00

     total cpu time spent up to now is       23.1 secs

     total energy              =    -520.63647512 Ry
     estimated scf accuracy    <       0.00001878 Ry

     iteration #  2     ecut=    55.00 Ry     beta= 0.30
     Davidson diagonalization with overlap
     ethr =  2.72E-08,  avg # of iterations =  2.1

     negative rho (up, down):  8.524E-06 0.000E+00

     total cpu time spent up to now is       23.5 secs

     total energy              =    -520.63641528 Ry
     estimated scf accuracy    <       0.00462020 Ry

     iteration #  3     ecut=    55.00 Ry     beta= 0.30
     Davidson diagonalization with overlap
     ethr =  2.72E-08,  avg # of iterations =  1.5

     negative rho (up, down):  8.545E-06 0.000E+00

     total cpu time spent up to now is       23.8 secs

     total energy              =    -520.63647929 Ry
     estimated scf accuracy    <       0.00004347 Ry

     iteration #  4     ecut=    55.00 Ry     beta= 0.30
     Davidson diagonalization with overlap
     ethr =  2.72E-08,  avg # of iterations =  1.2

     negative rho (up, down):  8.556E-06 0.000E+00

     total cpu time spent up to now is       24.2 secs

     total energy              =    -520.63648009 Ry
     estimated scf accuracy    <       0.00005974 Ry

     iteration #  5     ecut=    55.00 Ry     beta= 0.30
     Davidson diagonalization with overlap
     ethr =  2.72E-08,  avg # of iterations =  1.0

     negative rho (up, down):  8.530E-06 0.000E+00

     total cpu time spent up to now is       24.5 secs

     total energy              =    -520.63648218 Ry
     estimated scf accuracy    <       0.00000373 Ry

     iteration #  6     ecut=    55.00 Ry     beta= 0.30
     Davidson diagonalization with overlap
     ethr =  5.41E-09,  avg # of iterations =  1.2

     negative rho (up, down):  8.507E-06 0.000E+00

     total cpu time spent up to now is       24.8 secs

     total energy              =    -520.63648243 Ry
     estimated scf accuracy    <       0.00000026 Ry

     iteration #  7     ecut=    55.00 Ry     beta= 0.30
     Davidson diagonalization with overlap
     ethr =  3.79E-10,  avg # of iterations =  2.0

     negative rho (up, down):  8.480E-06 0.000E+00

     total cpu time spent up to now is       25.2 secs

     total energy              =    -520.63648247 Ry
     estimated scf accuracy    <       0.00000006 Ry

     iteration #  8     ecut=    55.00 Ry     beta= 0.30
     Davidson diagonalization with overlap
     ethr =  8.35E-11,  avg # of iterations =  2.4

     negative rho (up, down):  8.457E-06 0.000E+00

     total cpu time spent up to now is       25.6 secs

     total energy              =    -520.63648249 Ry
     estimated scf accuracy    <       0.00000001 Ry

     iteration #  9     ecut=    55.00 Ry     beta= 0.30
     Davidson diagonalization with overlap
     ethr =  1.83E-11,  avg # of iterations =  2.9

     negative rho (up, down):  8.452E-06 0.000E+00

     total cpu time spent up to now is       26.0 secs

     End of self-consistent calculation

          k = 0.0000 0.0000 0.0000 ( 10919 PWs)   bands (ev):

   -42.7649  -3.6231  -3.1557  -2.5819  -2.3591  -2.2931  -2.1923  -0.9961
    -0.8279  -0.8181  -0.8181  -0.7994  -0.7534  -0.7533  -0.7287  -0.7287
    -0.6608  -0.6608  -0.6364  -0.6364  -0.5385  -0.5385  -0.1581   0.1350
     0.1352   0.2035   0.2036   0.2399   0.2399   0.4750   0.4751   0.7227
     0.7228   0.9290   0.9290   1.0278   2.2536   3.5008   3.9596   7.1884
     7.7860   8.1345

          k = 0.0000 0.1444 0.0000 ( 10876 PWs)   bands (ev):

   -42.7616  -3.2121  -2.7632  -2.2117  -2.1051  -2.0112  -1.8851  -1.1488
    -1.0352  -0.9496  -0.8814  -0.8553  -0.8047  -0.6972  -0.6521  -0.6241
    -0.5875  -0.5298  -0.5254  -0.4943  -0.4755  -0.4451  -0.3355  -0.2008
    -0.0064   0.0519   0.1051   0.1519   0.2443   0.2926   0.4633   0.4886
     0.7358   0.9469   0.9531   1.8906   2.9665   4.0484   4.7858   7.5282
     8.1274   8.4324

          k = 0.0000 0.2888 0.0000 ( 10871 PWs)   bands (ev):

   -42.7538  -2.3320  -2.0650  -1.9051  -1.8176  -1.6892  -1.5786  -1.4588
    -1.3602  -1.1776  -1.0642  -0.9193  -0.7689  -0.6402  -0.5961  -0.5586
    -0.4630  -0.3792  -0.3596  -0.2223  -0.1496  -0.0830  -0.0637   0.0519
     0.0848   0.1061   0.2339   0.2512   0.2943   0.4240   0.5394   0.7579
     0.8221   0.9829   1.8372   3.0595   4.1618   5.3539   6.6087   8.4910
     9.1065   9.4213

          k = 0.0000 0.4332 0.0000 ( 10791 PWs)   bands (ev):

   -42.7458  -2.2208  -2.1839  -2.0703  -2.0297  -1.9585  -1.8533  -1.8043
    -1.6852  -1.4101  -1.0975  -0.9108  -0.7731  -0.6957  -0.5461  -0.4672
    -0.2733  -0.1480  -0.0439   0.2248   0.2839   0.5192   0.5383   0.7011
     0.7202   0.7227   0.7987   0.8212   0.8593   0.9055   1.0423   1.5499
     1.8946   2.3562   3.3382   4.5208   5.6767   7.0221   8.2820   8.8118
     9.3041   9.9954

          k = 0.0000-0.5775 0.0000 ( 10736 PWs)   bands (ev):

   -42.7424  -2.3531  -2.2967  -2.2074  -2.1644  -2.0426  -1.9816  -1.9467
    -1.8271  -1.5388  -1.1691  -0.9914  -0.8660  -0.7659  -0.5231  -0.3567
    -0.1781  -0.0777   0.1609   0.2388   0.5161   0.6270   0.7476   0.8902
     0.9858   0.9983   1.0185   1.0208   1.0998   1.1313   1.1800   3.7038
     4.1046   4.5086   4.8990   5.1707   5.3418   5.5003   7.6952   8.2307
     8.5951   8.8981

          k = 0.1251-0.0721 0.0000 ( 10876 PWs)   bands (ev):

   -42.7616  -3.2121  -2.7632  -2.2117  -2.1051  -2.0112  -1.8851  -1.1488
    -1.0352  -0.9496  -0.8814  -0.8553  -0.8047  -0.6972  -0.6521  -0.6241
    -0.5875  -0.5298  -0.5254  -0.4943  -0.4755  -0.4451  -0.3355  -0.2008
    -0.0064   0.0519   0.1051   0.1519   0.2443   0.2926   0.4633   0.4886
     0.7358   0.9469   0.9531   1.8906   2.9665   4.0484   4.7858   7.5282
     8.1274   8.4324

          k = 0.1251 0.0723 0.0000 ( 10875 PWs)   bands (ev):

   -42.7616  -3.2121  -2.7632  -2.2117  -2.1051  -2.0113  -1.8851  -1.1488
    -1.0352  -0.9496  -0.8814  -0.8553  -0.8047  -0.6972  -0.6521  -0.6241
    -0.5875  -0.5298  -0.5254  -0.4943  -0.4756  -0.4451  -0.3355  -0.2007
    -0.0065   0.0520   0.1052   0.1518   0.2443   0.2925   0.4633   0.4885
     0.7358   0.9469   0.9532   1.8907   2.9665   4.0484   4.7857   7.5284
     8.1231   8.4404

          k = 0.1251 0.2167 0.0000 ( 10868 PWs)   bands (ev):

   -42.7561  -2.5044  -2.1544  -1.7156  -1.7012  -1.6290  -1.5060  -1.3210
    -1.2479  -1.2136  -1.1357  -1.0229  -0.9457  -0.8438  -0.8085  -0.6169
    -0.6115  -0.5183  -0.4717  -0.3979  -0.3421  -0.1830  -0.1094  -0.0830
     0.0022   0.0745   0.1902   0.2534   0.3796   0.3875   0.4741   0.6512
     0.7971   0.8698   1.6204   2.7434   3.8189   4.9618   6.0852   8.1864
     8.7771   9.0988

          k = 0.1251 0.3611 0.0000 ( 10820 PWs)   bands (ev):

   -42.7481  -1.9704  -1.8576  -1.7971  -1.7342  -1.6679  -1.6061  -1.5153
    -1.3431  -1.2981  -1.1332  -0.9908  -0.8943  -0.7652  -0.6943  -0.5864
    -0.5270  -0.4590  -0.2917  -0.2363  -0.1604  -0.0431   0.0803   0.1652
     0.2435   0.4529   0.4923   0.7331   0.7590   0.8139   0.9669   1.4057
     1.5183   1.9400   2.9089   4.0898   5.2058   6.5016   7.9716   9.3656
    10.0996  10.4400

          k = 0.1251-0.6496 0.0000 ( 10762 PWs)   bands (ev):

   -42.7424  -2.1567  -2.0872  -2.0153  -1.9253  -1.8425  -1.7985  -1.7173
    -1.5689  -1.4511  -1.2140  -1.0252  -0.8235  -0.7228  -0.6247  -0.4916
    -0.3988  -0.1073  -0.0322   0.0335   0.3006   0.3495   0.4649   0.5410
     0.6339   0.6874   0.7416   0.8450   0.9553   0.9983   1.1359   3.4905
     3.7329   4.1484   4.8524   5.6604   6.4943   7.1215   8.0303   8.3034
     8.7179   9.4235

          k = 0.1251-0.5052 0.0000 ( 10760 PWs)   bands (ev):

   -42.7424  -2.1567  -2.0872  -2.0153  -1.9253  -1.8425  -1.7985  -1.7173
    -1.5689  -1.4511  -1.2140  -1.0252  -0.8235  -0.7228  -0.6248  -0.4915
    -0.3988  -0.1072  -0.0322   0.0335   0.3006   0.3495   0.4649   0.5410
     0.6339   0.6874   0.7416   0.8451   0.9552   0.9983   1.1359   3.4905
     3.7329   4.1484   4.8523   5.6603   6.4943   7.1215   8.0303   8.3038
     8.7179   9.4234

          k = 0.1251-0.3608 0.0000 ( 10818 PWs)   bands (ev):

   -42.7481  -1.9704  -1.8576  -1.7971  -1.7342  -1.6679  -1.6062  -1.5153
    -1.3431  -1.2982  -1.1333  -0.9908  -0.8943  -0.7651  -0.6942  -0.5864
    -0.5270  -0.4588  -0.2916  -0.2362  -0.1604  -0.0430   0.0803   0.1653
     0.2436   0.4530   0.4922   0.7331   0.7590   0.8139   0.9669   1.4057
     1.5183   1.9399   2.9088   4.0896   5.2058   6.5017   7.9716   9.3642
    10.1244  10.3907

          k = 0.1251-0.2164 0.0000 ( 10863 PWs)   bands (ev):

   -42.7560  -2.5044  -2.1544  -1.7156  -1.7011  -1.6289  -1.5060  -1.3210
    -1.2479  -1.2135  -1.1357  -1.0229  -0.9456  -0.8438  -0.8085  -0.6170
    -0.6115  -0.5183  -0.4718  -0.3979  -0.3420  -0.1830  -0.1093  -0.0830
     0.0022   0.0744   0.1902   0.2535   0.3796   0.3875   0.4740   0.6513
     0.7971   0.8699   1.6203   2.7432   3.8189   4.9619   6.0852   8.1851
     8.7961   9.0651

          k = 0.2502-0.1441 0.0000 ( 10871 PWs)   bands (ev):

   -42.7538  -2.3320  -2.0650  -1.9051  -1.8176  -1.6892  -1.5786  -1.4588
    -1.3602  -1.1776  -1.0642  -0.9193  -0.7689  -0.6402  -0.5961  -0.5586
    -0.4630  -0.3792  -0.3596  -0.2223  -0.1496  -0.0830  -0.0637   0.0519
     0.0848   0.1061   0.2339   0.2512   0.2943   0.4240   0.5394   0.7579
     0.8221   0.9829   1.8372   3.0595   4.1618   5.3539   6.6087   8.4910
     9.1065   9.4213

          k = 0.2502 0.0003 0.0000 ( 10868 PWs)   bands (ev):

   -42.7561  -2.5044  -2.1544  -1.7156  -1.7012  -1.6290  -1.5060  -1.3210
    -1.2479  -1.2136  -1.1357  -1.0229  -0.9457  -0.8438  -0.8085  -0.6169
    -0.6115  -0.5183  -0.4717  -0.3979  -0.3421  -0.1830  -0.1094  -0.0830
     0.0022   0.0745   0.1902   0.2534   0.3796   0.3875   0.4741   0.6512
     0.7971   0.8698   1.6204   2.7434   3.8189   4.9618   6.0852   8.1864
     8.7771   9.0988

          k = 0.2502 0.1447 0.0000 ( 10860 PWs)   bands (ev):

   -42.7538  -2.3320  -2.0650  -1.9051  -1.8176  -1.6893  -1.5786  -1.4588
    -1.3602  -1.1776  -1.0642  -0.9193  -0.7688  -0.6402  -0.5960  -0.5586
    -0.4629  -0.3791  -0.3596  -0.2223  -0.1496  -0.0829  -0.0637   0.0519
     0.0848   0.1061   0.2340   0.2513   0.2943   0.4240   0.5394   0.7579
     0.8222   0.9829   1.8374   3.0598   4.1618   5.3538   6.6087   8.4919
     9.0963   9.4397

          k = 0.2502 0.2890 0.0000 ( 10819 PWs)   bands (ev):

   -42.7481  -1.9704  -1.8575  -1.7971  -1.7342  -1.6679  -1.6061  -1.5153
    -1.3432  -1.2981  -1.1333  -0.9908  -0.8943  -0.7652  -0.6942  -0.5864
    -0.5269  -0.4588  -0.2916  -0.2362  -0.1604  -0.0430   0.0803   0.1652
     0.2435   0.4529   0.4923   0.7331   0.7590   0.8139   0.9669   1.4057
     1.5183   1.9400   2.9090   4.0900   5.2058   6.5016   7.9717   9.3658
    10.1005  10.4280

          k = 0.2502-0.7216 0.0000 ( 10755 PWs)   bands (ev):

   -42.7424  -1.8629  -1.8376  -1.6993  -1.6509  -1.5260  -1.4407  -1.3898
    -1.2602  -1.2282  -1.2194  -1.0569  -0.9588  -0.8591  -0.7459  -0.6006
    -0.5421  -0.4408  -0.3633  -0.2703  -0.1138  -0.0501   0.1009   0.1685
     0.2518   0.3332   0.5109   0.8089   0.9773   1.0156   1.1371   3.3944
     3.6119   4.0903   4.9164   5.9088   7.0548   8.3325   8.7662   9.6191
     9.7834   9.9326

          k = 0.2502-0.5773 0.0000 ( 10783 PWs)   bands (ev):

   -42.7402  -1.9211  -1.7127  -1.6812  -1.6063  -1.5452  -1.4748  -1.4277
    -1.3600  -1.2071  -1.1595  -1.0937  -0.9469  -0.8158  -0.7969  -0.5915
    -0.4941  -0.4158  -0.2836  -0.1589  -0.0959  -0.0265   0.1763   0.2894
     0.3635   0.4279   0.6618   0.7827   0.8421   0.9419   0.9823   5.4708
     6.1468   6.2292   6.3129   6.6362   7.1025   7.7100   7.9283   8.4145
     9.1245   9.3924

          k = 0.2502-0.4329 0.0000 ( 10756 PWs)   bands (ev):

   -42.7424  -1.8629  -1.8376  -1.6994  -1.6510  -1.5260  -1.4407  -1.3899
    -1.2603  -1.2282  -1.2193  -1.0570  -0.9587  -0.8591  -0.7459  -0.6005
    -0.5421  -0.4407  -0.3633  -0.2703  -0.1138  -0.0501   0.1010   0.1685
     0.2517   0.3332   0.5110   0.8089   0.9773   1.0156   1.1371   3.3944
     3.6118   4.0901   4.9160   5.9085   7.0548   8.3331   8.7668   9.6187
     9.7832   9.9325

          k = 0.2502-0.2885 0.0000 ( 10818 PWs)   bands (ev):

   -42.7481  -1.9704  -1.8576  -1.7971  -1.7342  -1.6679  -1.6062  -1.5153
    -1.3431  -1.2982  -1.1333  -0.9908  -0.8943  -0.7651  -0.6942  -0.5864
    -0.5270  -0.4588  -0.2916  -0.2362  -0.1604  -0.0430   0.0803   0.1653
     0.2436   0.4530   0.4922   0.7331   0.7590   0.8139   0.9669   1.4057
     1.5183   1.9399   2.9088   4.0896   5.2058   6.5017   7.9716   9.3642
    10.1244  10.3907

          k = 0.3754-0.2162 0.0000 ( 10791 PWs)   bands (ev):

   -42.7458  -2.2208  -2.1839  -2.0703  -2.0297  -1.9585  -1.8533  -1.8043
    -1.6852  -1.4101  -1.0975  -0.9108  -0.7731  -0.6957  -0.5462  -0.4672
    -0.2733  -0.1480  -0.0439   0.2248   0.2839   0.5192   0.5383   0.7011
     0.7202   0.7227   0.7987   0.8212   0.8593   0.9055   1.0423   1.5499
     1.8946   2.3562   3.3382   4.5208   5.6767   7.0221   8.2820   8.8118
     9.3041   9.9954

          k = 0.3754-0.0718 0.0000 ( 10820 PWs)   bands (ev):

   -42.7481  -1.9704  -1.8576  -1.7971  -1.7342  -1.6679  -1.6061  -1.5153
    -1.3431  -1.2981  -1.1332  -0.9908  -0.8943  -0.7652  -0.6943  -0.5864
    -0.5270  -0.4590  -0.2917  -0.2363  -0.1604  -0.0431   0.0803   0.1652
     0.2435   0.4529   0.4923   0.7331   0.7590   0.8139   0.9669   1.4057
     1.5183   1.9400   2.9089   4.0898   5.2058   6.5016   7.9716   9.3656
    10.0996  10.4400

          k = 0.3754 0.0726 0.0000 ( 10819 PWs)   bands (ev):

   -42.7481  -1.9704  -1.8575  -1.7971  -1.7342  -1.6679  -1.6061  -1.5153
    -1.3432  -1.2981  -1.1333  -0.9908  -0.8943  -0.7652  -0.6942  -0.5864
    -0.5269  -0.4588  -0.2916  -0.2362  -0.1604  -0.0430   0.0803   0.1652
     0.2435   0.4529   0.4923   0.7331   0.7590   0.8139   0.9669   1.4057
     1.5183   1.9400   2.9091   4.0900   5.2058   6.5016   7.9717   9.3658
    10.1005  10.4280

          k = 0.3754 0.2170 0.0000 ( 10794 PWs)   bands (ev):

   -42.7458  -2.2208  -2.1839  -2.0703  -2.0297  -1.9585  -1.8534  -1.8043
    -1.6852  -1.4101  -1.0975  -0.9107  -0.7732  -0.6957  -0.5461  -0.4672
    -0.2733  -0.1482  -0.0438   0.2248   0.2838   0.5192   0.5382   0.7011
     0.7202   0.7227   0.7987   0.8212   0.8594   0.9056   1.0423   1.5499
     1.8945   2.3562   3.3385   4.5215   5.6768   7.0219   8.2823   8.8120
     9.3044   9.9954

          k = 0.3754-0.7937 0.0000 ( 10771 PWs)   bands (ev):

   -42.7425  -2.1567  -2.0872  -2.0153  -1.9253  -1.8425  -1.7985  -1.7175
    -1.5690  -1.4512  -1.2140  -1.0252  -0.8236  -0.7229  -0.6247  -0.4916
    -0.3988  -0.1072  -0.0322   0.0335   0.3006   0.3494   0.4649   0.5410
     0.6338   0.6874   0.7416   0.8450   0.9552   0.9983   1.1359   3.4903
     3.7327   4.1485   4.8531   5.6615   6.4946   7.1214   8.0305   8.3027
     8.7180   9.4235

          k = 0.3754-0.6493 0.0000 ( 10768 PWs)   bands (ev):

   -42.7401  -1.9211  -1.7127  -1.6811  -1.6063  -1.5452  -1.4747  -1.4276
    -1.3600  -1.2070  -1.1594  -1.0937  -0.9469  -0.8157  -0.7969  -0.5915
    -0.4941  -0.4158  -0.2835  -0.1590  -0.0959  -0.0265   0.1764   0.2895
     0.3636   0.4280   0.6618   0.7827   0.8421   0.9420   0.9823   5.4706
     6.1468   6.2301   6.3136   6.6358   7.1022   7.7097   7.9282   8.4149
     9.1250   9.3923

          k = 0.3754-0.5049 0.0000 ( 10783 PWs)   bands (ev):

   -42.7402  -1.9211  -1.7127  -1.6812  -1.6063  -1.5452  -1.4748  -1.4277
    -1.3600  -1.2071  -1.1595  -1.0937  -0.9469  -0.8158  -0.7969  -0.5915
    -0.4941  -0.4158  -0.2836  -0.1589  -0.0959  -0.0265   0.1763   0.2894
     0.3635   0.4279   0.6618   0.7827   0.8421   0.9419   0.9823   5.4708
     6.1468   6.2292   6.3129   6.6362   7.1025   7.7100   7.9283   8.4145
     9.1245   9.3924

          k = 0.3754-0.3605 0.0000 ( 10760 PWs)   bands (ev):

   -42.7424  -2.1567  -2.0872  -2.0153  -1.9253  -1.8425  -1.7985  -1.7173
    -1.5689  -1.4511  -1.2140  -1.0252  -0.8235  -0.7228  -0.6248  -0.4915
    -0.3988  -0.1072  -0.0322   0.0335   0.3006   0.3495   0.4649   0.5410
     0.6339   0.6874   0.7416   0.8451   0.9552   0.9983   1.1359   3.4905
     3.7329   4.1484   4.8523   5.6603   6.4943   7.1215   8.0303   8.3038
     8.7179   9.4234

          k =-0.5005 0.2882 0.0000 ( 10736 PWs)   bands (ev):

   -42.7424  -2.3531  -2.2967  -2.2074  -2.1644  -2.0426  -1.9816  -1.9467
    -1.8271  -1.5388  -1.1691  -0.9914  -0.8660  -0.7659  -0.5231  -0.3568
    -0.1781  -0.0777   0.1609   0.2388   0.5161   0.6270   0.7476   0.8902
     0.9858   0.9983   1.0185   1.0208   1.0998   1.1313   1.1800   3.7038
     4.1046   4.5086   4.8990   5.1707   5.3418   5.5003   7.6952   8.2307
     8.5951   8.8981

          k =-0.5005 0.4326 0.0000 ( 10762 PWs)   bands (ev):

   -42.7424  -2.1567  -2.0872  -2.0153  -1.9253  -1.8425  -1.7985  -1.7173
    -1.5689  -1.4511  -1.2140  -1.0252  -0.8235  -0.7228  -0.6247  -0.4916
    -0.3988  -0.1073  -0.0322   0.0335   0.3006   0.3495   0.4649   0.5410
     0.6339   0.6874   0.7416   0.8450   0.9553   0.9983   1.1359   3.4905
[...]

          k = 0.1251-0.3608 0.0000 ( 10818 PWs)   bands (ev):

   -42.7589  -2.0324  -1.9189  -1.8445  -1.7765  -1.7017  -1.6445  -1.5349
    -1.3616  -1.3237  -1.1480  -1.0222  -0.9116  -0.8069  -0.7124  -0.6056
    -0.5260  -0.4632  -0.2976  -0.2478  -0.1643  -0.0403   0.0858   0.1687
     0.2429   0.4559   0.4927   0.7429   0.7610   0.8204   0.9884   1.4017
     1.5120   1.9483   2.9342   4.1161   5.2419   6.5666   8.0223   9.4088
    10.1675  10.3985

          k = 0.1251-0.2164 0.0000 ( 10863 PWs)   bands (ev):

   -42.7668  -2.5731  -2.2020  -1.7635  -1.7365  -1.6661  -1.5328  -1.3459
    -1.2788  -1.2452  -1.1760  -1.0347  -0.9488  -0.8490  -0.8137  -0.6311
    -0.6217  -0.5551  -0.4587  -0.3926  -0.3496  -0.2058  -0.1249  -0.0809
    -0.0080   0.0663   0.1841   0.2554   0.3776   0.3917   0.4824   0.6613
     0.8051   0.8986   1.6476   2.7748   3.8482   5.0062   6.1405   8.2055
     8.8464   9.0913

          k = 0.2502-0.1441 0.0000 ( 10871 PWs)   bands (ev):

   -42.7646  -2.3976  -2.1106  -1.9499  -1.8497  -1.7273  -1.6046  -1.4860
    -1.3818  -1.2113  -1.0952  -0.9342  -0.7652  -0.6414  -0.6260  -0.5921
    -0.4651  -0.4030  -0.3800  -0.2245  -0.1803  -0.0858  -0.0811   0.0373
     0.0936   0.1053   0.2273   0.2636   0.2950   0.4299   0.5482   0.7696
     0.8328   1.0153   1.8649   3.0911   4.1930   5.4057   6.6645   8.5194
     9.1603   9.4397

          k = 0.2502 0.0003 0.0000 ( 10868 PWs)   bands (ev):

   -42.7668  -2.5731  -2.2020  -1.7634  -1.7365  -1.6660  -1.5328  -1.3460
    -1.2789  -1.2452  -1.1760  -1.0348  -0.9488  -0.8491  -0.8137  -0.6309
    -0.6218  -0.5552  -0.4584  -0.3924  -0.3498  -0.2060  -0.1248  -0.0810
    -0.0080   0.0663   0.1839   0.2554   0.3776   0.3918   0.4825   0.6612
     0.8050   0.8985   1.6476   2.7749   3.8483   5.0062   6.1406   8.2068
     8.8259   9.1265

          k = 0.2502 0.1447 0.0000 ( 10860 PWs)   bands (ev):

   -42.7645  -2.3975  -2.1106  -1.9499  -1.8497  -1.7272  -1.6046  -1.4860
    -1.3818  -1.2113  -1.0953  -0.9343  -0.7652  -0.6414  -0.6258  -0.5922
    -0.4652  -0.4028  -0.3800  -0.2245  -0.1803  -0.0858  -0.0810   0.0373
     0.0936   0.1053   0.2273   0.2635   0.2950   0.4299   0.5483   0.7696
     0.8327   1.0152   1.8650   3.0912   4.1931   5.4059   6.6646   8.5204
     9.1480   9.4607

          k = 0.2502 0.2890 0.0000 ( 10819 PWs)   bands (ev):

   -42.7589  -2.0324  -1.9190  -1.8444  -1.7765  -1.7016  -1.6446  -1.5348
    -1.3616  -1.3237  -1.1481  -1.0222  -0.9117  -0.8068  -0.7125  -0.6055
    -0.5261  -0.4631  -0.2975  -0.2478  -0.1643  -0.0404   0.0858   0.1687
     0.2429   0.4559   0.4927   0.7428   0.7609   0.8204   0.9883   1.4017
     1.5119   1.9482   2.9341   4.1162   5.2419   6.5667   8.0224   9.4106
    10.1389  10.4413

          k = 0.2502-0.7216 0.0000 ( 10755 PWs)   bands (ev):

   -42.7532  -1.9246  -1.9019  -1.7470  -1.6901  -1.5725  -1.4811  -1.4259
    -1.3037  -1.2582  -1.2459  -1.0960  -0.9711  -0.8824  -0.7642  -0.6034
    -0.5518  -0.4504  -0.3661  -0.2707  -0.1010  -0.0288   0.1136   0.1815
     0.2519   0.3415   0.5225   0.8273   0.9931   1.0251   1.1511   3.3831
     3.5994   4.0951   4.9270   5.9276   7.0928   8.3831   8.7905   9.6378
     9.7679   9.9111

          k = 0.2502-0.5773 0.0000 ( 10783 PWs)   bands (ev):

   -42.7510  -1.9855  -1.7758  -1.7274  -1.6626  -1.5960  -1.5125  -1.4633
    -1.3961  -1.2514  -1.1887  -1.1210  -0.9580  -0.8290  -0.8086  -0.5979
    -0.5157  -0.4281  -0.2827  -0.1422  -0.0959  -0.0098   0.1846   0.2977
     0.3810   0.4444   0.6704   0.7945   0.8629   0.9625   1.0011   5.4776
     6.1175   6.2126   6.3053   6.6283   7.1056   7.7267   7.9316   8.4423
     9.1472   9.3657

          k = 0.2502-0.4329 0.0000 ( 10756 PWs)   bands (ev):

   -42.7532  -1.9246  -1.9018  -1.7471  -1.6901  -1.5725  -1.4811  -1.4259
    -1.3039  -1.2581  -1.2460  -1.0959  -0.9711  -0.8826  -0.7644  -0.6033
    -0.5519  -0.4504  -0.3661  -0.2707  -0.1009  -0.0288   0.1136   0.1816
     0.2519   0.3415   0.5225   0.8274   0.9931   1.0251   1.1512   3.3831
     3.5995   4.0952   4.9270   5.9276   7.0928   8.3831   8.7904   9.6377
     9.7680   9.9111

          k = 0.2502-0.2885 0.0000 ( 10818 PWs)   bands (ev):

   -42.7589  -2.0324  -1.9189  -1.8445  -1.7765  -1.7017  -1.6445  -1.5349
    -1.3616  -1.3237  -1.1480  -1.0222  -0.9116  -0.8069  -0.7124  -0.6056
    -0.5260  -0.4632  -0.2976  -0.2478  -0.1643  -0.0403   0.0858   0.1687
     0.2429   0.4559   0.4927   0.7429   0.7610   0.8204   0.9884   1.4017
     1.5120   1.9483   2.9342   4.1161   5.2419   6.5666   8.0223   9.4088
    10.1675  10.3985

          k = 0.3754-0.2162 0.0000 ( 10791 PWs)   bands (ev):

   -42.7565  -2.2763  -2.2369  -2.1273  -2.0597  -1.9924  -1.8636  -1.8432
    -1.6962  -1.4340  -1.1003  -0.9094  -0.7630  -0.7555  -0.5661  -0.5099
    -0.2926  -0.1694  -0.0565   0.2176   0.2834   0.5306   0.5335   0.6967
     0.7175   0.7298   0.7948   0.8244   0.8577   0.9057   1.0732   1.5352
     1.8940   2.3625   3.3572   4.5409   5.7127   7.0865   8.3037   8.8228
     9.3116  10.0314

          k = 0.3754-0.0718 0.0000 ( 10820 PWs)   bands (ev):

   -42.7589  -2.0324  -1.9190  -1.8444  -1.7765  -1.7017  -1.6446  -1.5349
    -1.3616  -1.3237  -1.1481  -1.0222  -0.9118  -0.8067  -0.7123  -0.6055
    -0.5260  -0.4631  -0.2975  -0.2478  -0.1643  -0.0403   0.0857   0.1687
     0.2429   0.4559   0.4927   0.7429   0.7609   0.8204   0.9883   1.4017
     1.5120   1.9483   2.9342   4.1162   5.2419   6.5667   8.0223   9.4103
    10.1391  10.4503

          k = 0.3754 0.0726 0.0000 ( 10819 PWs)   bands (ev):

   -42.7589  -2.0324  -1.9190  -1.8444  -1.7765  -1.7016  -1.6446  -1.5348
    -1.3616  -1.3237  -1.1481  -1.0222  -0.9117  -0.8068  -0.7125  -0.6055
    -0.5261  -0.4631  -0.2975  -0.2478  -0.1643  -0.0404   0.0858   0.1687
     0.2429   0.4559   0.4927   0.7428   0.7609   0.8204   0.9883   1.4017
     1.5119   1.9482   2.9341   4.1162   5.2419   6.5667   8.0224   9.4106
    10.1389  10.4413

          k = 0.3754 0.2170 0.0000 ( 10794 PWs)   bands (ev):

   -42.7565  -2.2763  -2.2369  -2.1274  -2.0597  -1.9923  -1.8636  -1.8432
    -1.6962  -1.4339  -1.1005  -0.9096  -0.7628  -0.7556  -0.5661  -0.5098
    -0.2928  -0.1694  -0.0563   0.2175   0.2832   0.5308   0.5334   0.6967
     0.7175   0.7298   0.7948   0.8244   0.8578   0.9057   1.0732   1.5354
     1.8939   2.3623   3.3571   4.5409   5.7127   7.0866   8.3036   8.8230
     9.3121  10.0317

          k = 0.3754-0.7937 0.0000 ( 10771 PWs)   bands (ev):

   -42.7532  -2.2190  -2.1441  -2.0667  -1.9598  -1.8767  -1.8371  -1.7291
    -1.5827  -1.4728  -1.2332  -1.0676  -0.8336  -0.7417  -0.6386  -0.5141
    -0.4120  -0.1240  -0.0393   0.0265   0.3000   0.3477   0.4659   0.5454
     0.6420   0.6953   0.7471   0.8640   0.9629   1.0105   1.1490   3.4766
     3.7216   4.1501   4.8558   5.6694   6.5099   7.1280   8.0548   8.3091
     8.7438   9.4655

          k = 0.3754-0.6493 0.0000 ( 10768 PWs)   bands (ev):

   -42.7509  -1.9856  -1.7758  -1.7274  -1.6626  -1.5959  -1.5125  -1.4632
    -1.3961  -1.2513  -1.1886  -1.1210  -0.9579  -0.8288  -0.8086  -0.5979
    -0.5157  -0.4281  -0.2827  -0.1424  -0.0959  -0.0099   0.1847   0.2979
     0.3811   0.4444   0.6705   0.7946   0.8629   0.9625   1.0011   5.4776
     6.1175   6.2127   6.3052   6.6280   7.1052   7.7264   7.9318   8.4426
     9.1477   9.3658

          k = 0.3754-0.5049 0.0000 ( 10783 PWs)   bands (ev):

   -42.7510  -1.9855  -1.7758  -1.7274  -1.6626  -1.5960  -1.5125  -1.4633
    -1.3961  -1.2514  -1.1887  -1.1210  -0.9580  -0.8290  -0.8086  -0.5979
    -0.5157  -0.4281  -0.2827  -0.1422  -0.0959  -0.0098   0.1846   0.2977
     0.3810   0.4444   0.6704   0.7945   0.8629   0.9625   1.0011   5.4776
     6.1175   6.2126   6.3052   6.6283   7.1056   7.7267   7.9316   8.4423
     9.1472   9.3657

          k = 0.3754-0.3605 0.0000 ( 10760 PWs)   bands (ev):

   -42.7532  -2.2189  -2.1441  -2.0666  -1.9598  -1.8767  -1.8371  -1.7291
    -1.5827  -1.4728  -1.2330  -1.0676  -0.8336  -0.7417  -0.6387  -0.5141
    -0.4119  -0.1241  -0.0392   0.0266   0.3000   0.3478   0.4659   0.5454
     0.6420   0.6954   0.7471   0.8640   0.9629   1.0105   1.1491   3.4764
     3.7216   4.1503   4.8560   5.6695   6.5102   7.1283   8.0543   8.3092
     8.7431   9.4649

          k =-0.5005 0.2882 0.0000 ( 10736 PWs)   bands (ev):

   -42.7532  -2.4086  -2.3532  -2.2637  -2.1939  -2.0757  -1.9903  -1.9860
    -1.8377  -1.5611  -1.1730  -0.9918  -0.8445  -0.8338  -0.5654  -0.3709
    -0.1975  -0.0973   0.1562   0.2376   0.5154   0.6355   0.7716   0.9054
     0.9802   0.9976   1.0080   1.0337   1.0929   1.1312   1.1875   3.6798
     4.0971   4.5071   4.8930   5.1689   5.3438   5.5077   7.7329   8.2571
     8.5878   8.9426

          k =-0.5005 0.4326 0.0000 ( 10762 PWs)   bands (ev):

   -42.7532  -2.2189  -2.1441  -2.0667  -1.9598  -1.8767  -1.8371  -1.7291
    -1.5827  -1.4728  -1.2331  -1.0676  -0.8336  -0.7416  -0.6386  -0.5141
    -0.4119  -0.1241  -0.0392   0.0266   0.3000   0.3478   0.4659   0.5455
     0.6420   0.6954   0.7471   0.8640   0.9629   1.0105   1.1490   3.4764
     3.7216   4.1502   4.8560   5.6695   6.5102   7.1283   8.0543   8.3092
     8.7431   9.4649

          k =-0.5005 0.5770 0.0000 ( 10755 PWs)   bands (ev):

   -42.7532  -1.9246  -1.9019  -1.7470  -1.6901  -1.5725  -1.4811  -1.4259
    -1.3037  -1.2582  -1.2459  -1.0960  -0.9711  -0.8824  -0.7642  -0.6034
    -0.5518  -0.4503  -0.3661  -0.2707  -0.1010  -0.0288   0.1136   0.1815
     0.2519   0.3415   0.5225   0.8273   0.9931   1.0251   1.1511   3.3831
     3.5994   4.0951   4.9270   5.9276   7.0928   8.3831   8.7905   9.6378
     9.7679   9.9111

          k =-0.5005 0.7214 0.0000 ( 10771 PWs)   bands (ev):

   -42.7532  -2.2190  -2.1441  -2.0667  -1.9598  -1.8767  -1.8371  -1.7291
    -1.5827  -1.4728  -1.2332  -1.0676  -0.8336  -0.7417  -0.6386  -0.5141
    -0.4120  -0.1240  -0.0393   0.0265   0.3000   0.3477   0.4659   0.5454
     0.6420   0.6953   0.7471   0.8640   0.9629   1.0105   1.1490   3.4766
     3.7216   4.1501   4.8558   5.6694   6.5099   7.1280   8.0548   8.3091
     8.7438   9.4655

          k =-0.5005-0.2893 0.0000 ( 10756 PWs)   bands (ev):

   -42.7532  -2.4086  -2.3532  -2.2637  -2.1939  -2.0757  -1.9903  -1.9860
    -1.8377  -1.5611  -1.1733  -0.9920  -0.8446  -0.8337  -0.5654  -0.3710
    -0.1975  -0.0974   0.1563   0.2376   0.5152   0.6355   0.7717   0.9053
     0.9801   0.9975   1.0080   1.0336   1.0929   1.1312   1.1876   3.6803
     4.0972   4.5069   4.8928   5.1686   5.3429   5.5073   7.7335   8.2579
     8.5876   8.9433

     the Fermi energy is     3.9330 ev

!    total energy              =    -520.63706954 Ry
     estimated scf accuracy    <          5.7E-09 Ry
     smearing contrib. (-TS)   =      -0.00171557 Ry
     internal energy E=F+TS    =    -520.63535397 Ry

     The total energy is F=E-TS. E is the sum of the following terms:
     one-electron contribution =   -6746.56359130 Ry
     hartree contribution      =    3424.69569444 Ry
     xc contribution           =    -137.66178119 Ry
     ewald contribution        =    2939.08941748 Ry
     DFT-D3 Dispersion         =      -0.19509339 Ry

     convergence has been achieved in   8 iterations

     negative rho (up, down):  9.741E-06 0.000E+00

     Forces acting on atoms (cartesian axes, Ry/au):

     atom    1 type  2   force =     0.00003450    0.00002017   -0.00079046
     atom    2 type  2   force =    -0.00001994   -0.00001225    0.00044869
     atom    3 type  2   force =    -0.00002403   -0.00001367    0.00057410
     atom    4 type  2   force =    -0.00003816   -0.00002210    0.00099320
     atom    5 type  2   force =     0.00003127    0.00001823   -0.00062679
     atom    6 type  2   force =     0.00000575    0.00000353   -0.00040728
     atom    7 type  1   force =     0.00001060    0.00000608   -0.00019146
     The non-local contrib.  to forces
     atom    1 type  2   force =     0.00278546    0.00161028   -0.06369825
     atom    2 type  2   force =     0.00165561    0.00095676   -0.03786345
     atom    3 type  2   force =    -0.00015695   -0.00009077    0.00360852
     atom    4 type  2   force =    -0.00012412   -0.00007154    0.00283861
     atom    5 type  2   force =    -0.00038369   -0.00022159    0.00868795
     atom    6 type  2   force =    -0.00034918   -0.00020078    0.00800665
     atom    7 type  1   force =    -0.00226905   -0.00131353    0.05192660
     The ionic contribution  to forces
     atom    1 type  2   force =     7.20976979    4.16787479 -164.88152346
     atom    2 type  2   force =     4.49486562    2.59841009 -102.79403162
     atom    3 type  2   force =     1.72223950    0.99561266  -39.38558870
     atom    4 type  2   force =    -1.04023428   -0.60134916   23.79251418
     atom    5 type  2   force =    -3.79443827   -2.19351593   86.77843427
     atom    6 type  2   force =    -6.50887345   -3.76269234  148.84532247
     atom    7 type  1   force =    -2.08332892   -1.20434011   47.64487286
     The local contribution  to forces
     atom    1 type  2   force =    -7.21204168   -4.16918795  164.93347643
     atom    2 type  2   force =    -4.49634006   -2.59926276  102.82774092
     atom    3 type  2   force =    -1.72209306   -0.99552763   39.38224887
     atom    4 type  2   force =     1.04030459    0.60138942  -23.79397961
     atom    5 type  2   force =     3.79473185    2.19368564  -86.78495221
     atom    6 type  2   force =     6.50913418    3.76284233 -148.85164127
     atom    7 type  1   force =     2.08549204    1.20559235  -47.69432609
     The core correction contribution to forces
     atom    1 type  2   force =    -0.00025342   -0.00014653    0.00579516
     atom    2 type  2   force =    -0.00002610   -0.00001505    0.00059745
     atom    3 type  2   force =     0.00000961    0.00000551   -0.00022265
     atom    4 type  2   force =     0.00000118    0.00000069   -0.00004248
     atom    5 type  2   force =     0.00002537    0.00001469   -0.00059207
     atom    6 type  2   force =    -0.00010707   -0.00006187    0.00248403
     atom    7 type  1   force =     0.00000000    0.00000000    0.00000000
     The Hubbard contrib.    to forces
     atom    1 type  2   force =     0.00000000    0.00000000    0.00000000
     atom    2 type  2   force =     0.00000000    0.00000000    0.00000000
     atom    3 type  2   force =     0.00000000    0.00000000    0.00000000
     atom    4 type  2   force =     0.00000000    0.00000000    0.00000000
     atom    5 type  2   force =     0.00000000    0.00000000    0.00000000
     atom    6 type  2   force =     0.00000000    0.00000000    0.00000000
     atom    7 type  1   force =     0.00000000    0.00000000    0.00000000
     The SCF correction term to forces
     atom    1 type  2   force =     0.00000347    0.00000208   -0.00008215
     atom    2 type  2   force =     0.00000100    0.00000046   -0.00002265
     atom    3 type  2   force =    -0.00000332   -0.00000193    0.00007449
     atom    4 type  2   force =     0.00000082    0.00000061   -0.00001731
     atom    5 type  2   force =    -0.00000001   -0.00000006    0.00000312
     atom    6 type  2   force =     0.00000138    0.00000069   -0.00003387
     atom    7 type  1   force =     0.00000128    0.00000077   -0.00003490

     DFT-D3 dispersion contribution to forces:
     atom    1 type  2   force =    -0.00022910   -0.00013246    0.00523893
     atom    2 type  2   force =    -0.00017599   -0.00010170    0.00402516
     atom    3 type  2   force =    -0.00001979   -0.00001147    0.00045068
     atom    4 type  2   force =     0.00001367    0.00000791   -0.00032307
     atom    5 type  2   force =     0.00009603    0.00005553   -0.00221072
     atom    6 type  2   force =     0.00019992    0.00011555   -0.00454816
     atom    7 type  1   force =     0.00011526    0.00006665   -0.00263281

     Total force =     0.001656     Total SCF correction =     0.000125


     Computing stress (Cartesian axis) and pressure


     negative rho (up, down):  9.741E-06 0.000E+00
          total   stress  (Ry/bohr**3)                   (kbar)     P=       -7.71
  -0.00004338   0.00000000   0.00000115           -6.38        0.00        0.17
   0.00000000  -0.00004338   0.00000067            0.00       -6.38        0.10
   0.00000115   0.00000067  -0.00007057            0.17        0.10      -10.38

     Energy error            =      8.9E-06 Ry
     Gradient error          =      9.9E-04 Ry/Bohr

     bfgs converged in  18 scf cycles and  17 bfgs steps
     (criteria: energy <  1.0E-04 Ry, force <  1.0E-03 Ry/Bohr)

     End of BFGS Geometry Optimization

     Final energy             =    -520.6370695400 Ry

     File ./Ag_mp-124_111_hollow_0/Ag_mp-124_111_hollow_0.bfgs deleted, as requested
Begin final coordinates

ATOMIC_POSITIONS (angstrom)
Ag            1.9461466153        0.5663213706       10.2057305049
Ag            1.8413509248        2.1818819024       12.6024873130
Ag            3.1908949742        1.2858985119       14.9569277781
Ag            1.6404465851        0.3896156327       17.1980528131
Ag            1.5368949813        2.0058880657       19.5724147270
Ag            2.8845591614        1.1088210885       21.9814315319
Li            1.3431697968        1.8938841203       24.0117721115
End final coordinates



     Writing all to output data dir ./Ag_mp-124_111_hollow_0/Ag_mp-124_111_hollow_0.save/

     init_run     :      6.26s CPU      6.67s WALL (       1 calls)
     electrons    :     67.19s CPU     75.42s WALL (      18 calls)
     update_pot   :      8.39s CPU      8.85s WALL (      17 calls)
     forces       :      6.33s CPU      6.80s WALL (      18 calls)
     force_dftd3  :      0.13s CPU      0.24s WALL (      18 calls)
     stress       :     19.37s CPU     19.91s WALL (      18 calls)
     stres_dftd3  :      0.12s CPU      0.20s WALL (      18 calls)

     Called by init_run:
     wfcinit      :      0.42s CPU      0.60s WALL (       1 calls)
     potinit      :      2.00s CPU      2.05s WALL (       1 calls)
     hinit0       :      3.76s CPU      3.92s WALL (       1 calls)

     Called by electrons:
     c_bands      :     54.50s CPU     59.15s WALL (     176 calls)
     sum_band     :      9.07s CPU     10.12s WALL (     176 calls)
     v_of_rho     :      1.68s CPU      2.29s WALL (     179 calls)
     newd         :      1.45s CPU      1.61s WALL (     179 calls)
     mix_rho      :      0.22s CPU      0.23s WALL (     176 calls)
     energy_dftd3 :      0.04s CPU      0.04s WALL (      18 calls)

     Called by c_bands:
     init_us_2    :      0.44s CPU      0.48s WALL (    3501 calls)
     init_us_2:cp :      0.43s CPU      0.48s WALL (    3501 calls)
     cegterg      :     51.62s CPU     54.79s WALL (    1584 calls)

     Called by *egterg:
     cdiaghg      :     11.88s CPU     12.00s WALL (    5716 calls)
     h_psi        :     32.08s CPU     34.78s WALL (    6013 calls)
     s_psi        :      1.39s CPU      1.43s WALL (    6013 calls)
     g_psi        :      0.12s CPU      0.12s WALL (    4420 calls)

     Called by h_psi:
     h_psi:calbec :      2.58s CPU      2.98s WALL (    6013 calls)
     vloc_psi     :     28.02s CPU     30.22s WALL (    6013 calls)
     add_vuspsi   :      1.38s CPU      1.48s WALL (    6013 calls)

     General routines
     calbec       :      4.72s CPU      5.28s WALL (    8407 calls)
     fft          :      5.83s CPU      6.89s WALL (    2773 calls)
     ffts         :      1.86s CPU      2.20s WALL (     355 calls)
     fftw         :     30.27s CPU     32.62s WALL (  392056 calls)
     interpolate  :      1.86s CPU      1.99s WALL (     179 calls)

     Parallel routines

     PWSCF        :   1m48.23s CPU   1m59.40s WALL


   This run was terminated on:   5:19:46  24Jul2025            

=------------------------------------------------------------------------------=
   JOB DONE.
=------------------------------------------------------------------------------=
