
     Program PWSCF v.7.2 starts on 24Jul2025 at  5:13:44 

     This program is part of the open-source Quantum ESPRESSO suite
     for quantum simulation of materials; please cite
         "P. Giannozzi et al., J. Phys.:Condens. Matter 21 395502 (2009);
         "P. Giannozzi et al., J. Phys.:Condens. Matter 29 465901 (2017);
         "P. Giannozzi et al., J. Chem. Phys. 152 154105 (2020);
          URL http://www.quantum-espresso.org", 
     in publications or presentations arising from this work. More details at
     http://www.quantum-espresso.org/quote

     Parallel version (MPI & OpenMP), running on     128 processor cores
     Number of MPI processes:               128
     Threads/MPI process:                     1

     MPI processes distributed on     2 nodes
     237280 MiB available memory on the printing compute node when the environment starts

     Reading input from Ag_mp-124_100_ontop_0.in

     Current dimensions of program PWSCF are:
     Max number of different atomic species (ntypx) = 10
     Max number of k-points (npk) =  40000
     Max angular momentum in pseudopotentials (lmaxx) =  4
     Message from routine iosys:
     restart disabled: needed files not found

     K-points division:     npool     =       4
     R & G space division:  proc/nbgrp/npool/nimage =      32
     Subspace diagonalization in iterative solution of the eigenvalue problem:
     a serial algorithm will be used


     Parallelization info
     --------------------
     sticks:   dense  smooth     PW     G-vecs:    dense   smooth      PW
     Min          37      16      5                10139     2936     487
     Max          38      17      6                10190     2975     521
     Sum        1201     517    161               325127    94489   16093

     Using Slab Decomposition



     bravais-lattice index     =            0
     lattice parameter (alat)  =       5.4844  a.u.
     unit-cell volume          =    1720.0396 (a.u.)^3
     number of atoms/cell      =            7
     number of atomic types    =            2
     number of electrons       =        69.00
     number of Kohn-Sham states=           42
     kinetic-energy cutoff     =      55.0000  Ry
     charge density cutoff     =     500.0000  Ry
     scf convergence threshold =      1.0E-06
     mixing beta               =       0.3000
     number of iterations used =            8  plain     mixing
     energy convergence thresh.=      1.0E-04
     force convergence thresh. =      1.0E-03
     Exchange-correlation= PBE
                           (   1   4   3   4   0   0   0)
     nstep                     =          500


     celldm(1)=   5.484398  celldm(2)=   0.000000  celldm(3)=   0.000000
     celldm(4)=   0.000000  celldm(5)=   0.000000  celldm(6)=   0.000000

     crystal axes: (cart. coord. in units of alat)
               a(1) = (   1.000000   0.000000   0.000000 )  
               a(2) = (   0.000000   1.000000   0.000000 )  
               a(3) = (   0.000000   0.000000  10.426814 )  

     reciprocal axes: (cart. coord. in units 2 pi/alat)
               b(1) = (  1.000000 -0.000000  0.000000 )  
               b(2) = (  0.000000  1.000000  0.000000 )  
               b(3) = ( -0.000000 -0.000000  0.095907 )  


     PseudoPot. # 1 for Li read from file:
     /home/ecastro/trabajo_final/pseudos/Li.pbe-s-rrkjus_psl.1.0.0.UPF
     MD5 check sum: 9f98d2529904d60b716d33989e9bc179
     Pseudo is Ultrasoft, Zval =  3.0
     Generated using &quot;atomic&quot; code by A. Dal Corso  v.6.3MaX
     Using radial grid of 1017 points,  4 beta functions with: 
                l(1) =   0
                l(2) =   0
                l(3) =   1
                l(4) =   1
     Q(r) pseudized with 0 coefficients 


     PseudoPot. # 2 for Ag read from file:
     /home/ecastro/trabajo_final/pseudos/Ag.pbe-n-rrkjus_psl.1.0.0.UPF
     MD5 check sum: 81cdf87bacf708300839c66ee23ce017
     Pseudo is Ultrasoft + core correction, Zval = 11.0
     Generated using &quot;atomic&quot; code by A. Dal Corso  v.6.2.2
     Using radial grid of 1237 points,  6 beta functions with: 
                l(1) =   0
                l(2) =   0
                l(3) =   1
                l(4) =   1
                l(5) =   2
                l(6) =   2
     Q(r) pseudized with 0 coefficients 


     atomic species   valence    mass     pseudopotential
        Li             3.00     6.94100     Li( 1.00)
        Ag            11.00   107.86820     Ag( 1.00)

     No symmetry found



   Cartesian axes

     site n.     atom                  positions (alat units)
         1           Ag  tau(   1) = (   0.7500000   0.2500000   4.1527471  )
         2           Ag  tau(   2) = (   0.2500000   0.7500000   3.4456403  )
         3           Ag  tau(   3) = (   0.7500000   0.2500000   5.5669606  )
         4           Ag  tau(   4) = (   0.2500000   0.7500000   4.8598538  )
         5           Ag  tau(   5) = (   0.7499994   0.2499989   6.9742602  )
         6           Ag  tau(   6) = (   0.2500010   0.7500043   6.2668291  )
         7           Li  tau(   7) = (   0.7499994   0.2499989   7.6633883  )

     --------------------------------------------
     DFT-D3 Dispersion Correction (no 3-body):
     --------------------------------------------
       Reference C6 values for interpolation: 

         atom   Coordination number   C6
         Li         0.000          2326.89
         Li         0.987           170.64
         Ag         0.000           853.49
         Ag         0.968           537.23

       Values used:

         atom   Coordination number  R0_AB[au]  C6      C8
         Ag         8.689            3.147    537.23  47741.54
         Ag         5.822            3.147    537.23  47741.54
         Ag         8.790            3.147    537.23  47741.54
         Ag         8.719            3.147    537.23  47741.54
         Ag         7.429            3.147    537.23  47741.54
         Ag         8.789            3.147    537.23  47741.54
         Li         5.118            3.303    170.64  12899.87

         Molecular C6 ( Ry / a.u.^6 ) =     22982.53


     number of k points=    34  Methfessel-Paxton smearing, width (Ry)=  0.0300
                       cart. coord. in units 2pi/alat
        k(    1) = (   0.0000000   0.0000000   0.0000000), wk =   0.0312500
        k(    2) = (   0.0000000   0.1250000   0.0000000), wk =   0.0625000
        k(    3) = (   0.0000000   0.2500000   0.0000000), wk =   0.0625000
        k(    4) = (   0.0000000   0.3750000   0.0000000), wk =   0.0625000
        k(    5) = (   0.0000000  -0.5000000   0.0000000), wk =   0.0312500
        k(    6) = (   0.1250000  -0.0000000   0.0000000), wk =   0.0625000
        k(    7) = (   0.1250000   0.1250000   0.0000000), wk =   0.0625000
        k(    8) = (   0.1250000   0.2500000   0.0000000), wk =   0.0625000
        k(    9) = (   0.1250000   0.3750000   0.0000000), wk =   0.0625000
        k(   10) = (   0.1250000  -0.5000000   0.0000000), wk =   0.0625000
        k(   11) = (   0.1250000  -0.3750000   0.0000000), wk =   0.0625000
        k(   12) = (   0.1250000  -0.2500000   0.0000000), wk =   0.0625000
        k(   13) = (   0.1250000  -0.1250000   0.0000000), wk =   0.0625000
        k(   14) = (   0.2500000  -0.0000000   0.0000000), wk =   0.0625000
        k(   15) = (   0.2500000   0.1250000   0.0000000), wk =   0.0625000
        k(   16) = (   0.2500000   0.2500000   0.0000000), wk =   0.0625000
        k(   17) = (   0.2500000   0.3750000   0.0000000), wk =   0.0625000
        k(   18) = (   0.2500000  -0.5000000   0.0000000), wk =   0.0625000
        k(   19) = (   0.2500000  -0.3750000   0.0000000), wk =   0.0625000
        k(   20) = (   0.2500000  -0.2500000   0.0000000), wk =   0.0625000
        k(   21) = (   0.2500000  -0.1250000   0.0000000), wk =   0.0625000
        k(   22) = (   0.3750000  -0.0000000   0.0000000), wk =   0.0625000
        k(   23) = (   0.3750000   0.1250000   0.0000000), wk =   0.0625000
        k(   24) = (   0.3750000   0.2500000   0.0000000), wk =   0.0625000
        k(   25) = (   0.3750000   0.3750000   0.0000000), wk =   0.0625000
        k(   26) = (   0.3750000  -0.5000000   0.0000000), wk =   0.0625000
        k(   27) = (   0.3750000  -0.3750000   0.0000000), wk =   0.0625000
        k(   28) = (   0.3750000  -0.2500000   0.0000000), wk =   0.0625000
        k(   29) = (   0.3750000  -0.1250000   0.0000000), wk =   0.0625000
        k(   30) = (  -0.5000000   0.0000000   0.0000000), wk =   0.0312500
        k(   31) = (  -0.5000000   0.1250000   0.0000000), wk =   0.0625000
        k(   32) = (  -0.5000000   0.2500000   0.0000000), wk =   0.0625000
        k(   33) = (  -0.5000000   0.3750000   0.0000000), wk =   0.0625000
        k(   34) = (  -0.5000000  -0.5000000   0.0000000), wk =   0.0312500

     Dense  grid:   325127 G-vectors     FFT dimensions: (  40,  40, 432)

     Smooth grid:    94489 G-vectors     FFT dimensions: (  25,  25, 270)

     Estimated max dynamical RAM per process >      20.59 MB

     Estimated total dynamical RAM >       2.34 GB
     Cannot read rho : file not found

     Initial potential from superposition of free atoms

     starting charge      68.9930, renormalised to      69.0000

     negative rho (up, down):  3.292E-05 0.000E+00
     Message from routine qexsd_readschema :
     xml data file ./Ag_mp-124_100_ontop_0/Ag_mp-124_100_ontop_0.save/data-file-schem
     Cannot read wfcs: file not found
     Starting wfcs are   59 randomized atomic wfcs

     total cpu time spent up to now is        9.7 secs

     per-process dynamical memory:   175.4 Mb

     Self-consistent Calculation

     iteration #  1     ecut=    55.00 Ry     beta= 0.30
     Davidson diagonalization with overlap
     c_bands:  2 eigenvalues not converged
     c_bands:  2 eigenvalues not converged
     c_bands:  1 eigenvalues not converged
     c_bands:  1 eigenvalues not converged
     c_bands:  2 eigenvalues not converged
     c_bands:  2 eigenvalues not converged
     ethr =  1.00E-05,  avg # of iterations = 17.6

     negative rho (up, down):  2.622E-05 0.000E+00

     total cpu time spent up to now is       15.6 secs

     total energy              =    -520.49355415 Ry
     estimated scf accuracy    <       0.23615154 Ry

     iteration #  2     ecut=    55.00 Ry     beta= 0.30
     Davidson diagonalization with overlap
     ethr =  3.42E-04,  avg # of iterations =  7.4

     negative rho (up, down):  4.993E-05 0.000E+00

     total cpu time spent up to now is       17.0 secs

     total energy              =    -520.28513323 Ry
     estimated scf accuracy    <       7.87857704 Ry

     iteration #  3     ecut=    55.00 Ry     beta= 0.30
     Davidson diagonalization with overlap
     ethr =  3.42E-04,  avg # of iterations =  8.5

     negative rho (up, down):  6.217E-05 0.000E+00

     total cpu time spent up to now is       18.2 secs

     total energy              =    -520.48989336 Ry
     estimated scf accuracy    <       1.78319921 Ry

     iteration #  4     ecut=    55.00 Ry     beta= 0.30
     Davidson diagonalization with overlap
     ethr =  3.42E-04,  avg # of iterations =  3.1

     negative rho (up, down):  3.752E-05 0.000E+00

     total cpu time spent up to now is       18.9 secs

     total energy              =    -520.55252957 Ry
     estimated scf accuracy    <       0.29675385 Ry

     iteration #  5     ecut=    55.00 Ry     beta= 0.30
     Davidson diagonalization with overlap
     ethr =  3.42E-04,  avg # of iterations =  1.3

     negative rho (up, down):  2.342E-05 0.000E+00

     total cpu time spent up to now is       19.5 secs

     total energy              =    -520.56356226 Ry
     estimated scf accuracy    <       0.00698597 Ry

     iteration #  6     ecut=    55.00 Ry     beta= 0.30
     Davidson diagonalization with overlap
     ethr =  1.01E-05,  avg # of iterations = 10.1

     negative rho (up, down):  1.459E-05 0.000E+00

     total cpu time spent up to now is       20.5 secs

     total energy              =    -520.56418600 Ry
     estimated scf accuracy    <       0.00076760 Ry

     iteration #  7     ecut=    55.00 Ry     beta= 0.30
     Davidson diagonalization with overlap
     ethr =  1.11E-06,  avg # of iterations =  4.1

     negative rho (up, down):  1.057E-05 0.000E+00

     total cpu time spent up to now is       22.8 secs

     total energy              =    -520.56422537 Ry
     estimated scf accuracy    <       0.00070200 Ry

     iteration #  8     ecut=    55.00 Ry     beta= 0.30
     Davidson diagonalization with overlap
     ethr =  1.02E-06,  avg # of iterations =  1.7

     negative rho (up, down):  9.573E-06 0.000E+00

     total cpu time spent up to now is       23.7 secs

     total energy              =    -520.56430747 Ry
     estimated scf accuracy    <       0.00013761 Ry

     iteration #  9     ecut=    55.00 Ry     beta= 0.30
     Davidson diagonalization with overlap
     ethr =  1.99E-07,  avg # of iterations =  1.9

     negative rho (up, down):  9.693E-06 0.000E+00

     total cpu time spent up to now is       24.4 secs

     total energy              =    -520.56432142 Ry
     estimated scf accuracy    <       0.00001221 Ry

     iteration # 10     ecut=    55.00 Ry     beta= 0.30
     Davidson diagonalization with overlap
     ethr =  1.77E-08,  avg # of iterations =  3.6

     negative rho (up, down):  9.328E-06 0.000E+00

     total cpu time spent up to now is       26.4 secs

     total energy              =    -520.56432280 Ry
     estimated scf accuracy    <       0.00000257 Ry

     iteration # 11     ecut=    55.00 Ry     beta= 0.30
     Davidson diagonalization with overlap
     ethr =  3.72E-09,  avg # of iterations =  3.2

     negative rho (up, down):  8.833E-06 0.000E+00

     total cpu time spent up to now is       26.8 secs

     End of self-consistent calculation

          k = 0.0000 0.0000 0.0000 ( 11951 PWs)   bands (ev):

   -43.9516  -4.2216  -3.6149  -3.0415  -2.9048  -2.8487  -2.8051  -2.7262
    -2.4215  -2.3854  -2.0560  -1.7287  -1.5129  -1.4681  -1.4681  -1.3077
    -1.2395  -1.2395  -0.8617  -0.8617  -0.6396  -0.5123  -0.5035  -0.3730
    -0.3730  -0.3589  -0.2035  -0.0766   0.0136   0.1044   0.1044   0.2127
     0.3172   0.4432   0.4432   1.2469   2.4298   3.6624   4.6222   6.6452
     7.2605   7.7726

          k = 0.0000 0.1250 0.0000 ( 11903 PWs)   bands (ev):

   -43.9499  -3.9173  -3.3543  -2.9073  -2.7324  -2.7249  -2.6594  -2.5356
    -2.3289  -2.1804  -1.9160  -1.6856  -1.6245  -1.4200  -1.3950  -1.3279
    -1.2310  -1.2271  -1.0424  -0.9538  -0.7802  -0.6468  -0.5068  -0.4954
    -0.4325  -0.4146  -0.2936  -0.1813  -0.1433   0.0039   0.1016   0.1674
     0.3061   0.4481   0.5297   1.7718   2.8581   4.1206   5.2570   6.9155
     7.5479   8.0334

          k = 0.0000 0.2500 0.0000 ( 11877 PWs)   bands (ev):

   -43.9461  -3.1800  -2.9288  -2.6773  -2.6714  -2.5823  -2.2736  -2.2590
    -2.0461  -1.8117  -1.6493  -1.4666  -1.3854  -1.3510  -1.2518  -1.2215
    -1.1956  -1.1673  -1.1293  -1.0020  -0.9551  -0.8531  -0.7166  -0.7036
    -0.6183  -0.5650  -0.3547  -0.2587  -0.2193  -0.0168   0.1179   0.1600
     0.3404   0.3722   1.3598   2.7583   3.7937   5.2506   6.6918   7.6417
     8.3194   8.5376

          k = 0.0000 0.3750 0.0000 ( 11873 PWs)   bands (ev):

   -43.9423  -2.9384  -2.8638  -2.6867  -2.5925  -2.3713  -2.1663  -2.0381
    -1.8285  -1.6419  -1.5721  -1.4532  -1.4166  -1.4042  -1.3669  -1.2319
    -1.2024  -1.1768  -1.1576  -0.8568  -0.8282  -0.8139  -0.6228  -0.5130
    -0.3142  -0.2299  -0.0400   0.0024   0.1111   0.2769   0.3116   0.5665
     0.7616   1.1496   2.4898   3.8939   4.9114   5.4996   5.8382   6.6628
     7.2423   8.1765

          k = 0.0000-0.5000 0.0000 ( 11796 PWs)   bands (ev):

   -43.9405  -2.9986  -2.9323  -2.7029  -2.6288  -2.2264  -2.1641  -1.9398
    -1.7924  -1.5562  -1.5437  -1.5260  -1.4720  -1.4458  -1.4240  -1.2838
    -1.2582  -1.2351  -1.0988  -0.9679  -0.8172  -0.5547  -0.5498  -0.4267
    -0.2616  -0.0257   0.0581   0.0818   0.1996   0.2584   0.2855   2.3368
     2.6670   2.7798   2.8006   2.8709   3.4461   4.8218   5.2909   6.1255
     6.9207   7.7672

          k = 0.1250-0.0000 0.0000 ( 11903 PWs)   bands (ev):

   -43.9499  -3.9173  -3.3543  -2.9073  -2.7324  -2.7249  -2.6594  -2.5356
    -2.3289  -2.1804  -1.9160  -1.6856  -1.6245  -1.4200  -1.3950  -1.3279
    -1.2310  -1.2271  -1.0424  -0.9538  -0.7802  -0.6468  -0.5068  -0.4954
    -0.4325  -0.4146  -0.2936  -0.1813  -0.1433   0.0039   0.1016   0.1674
     0.3061   0.4481   0.5297   1.7718   2.8581   4.1206   5.2570   6.9154
     7.5479   8.0333

          k = 0.1250 0.1250 0.0000 ( 11887 PWs)   bands (ev):

   -43.9483  -3.6209  -3.0844  -2.7243  -2.6158  -2.5027  -2.4620  -2.3863
    -2.2118  -2.0256  -1.9191  -1.7092  -1.6568  -1.6131  -1.3399  -1.3051
    -1.1947  -1.1862  -1.1856  -0.9645  -0.8817  -0.7919  -0.6528  -0.6014
    -0.4947  -0.4389  -0.4052  -0.2581  -0.1873  -0.0097   0.0773   0.0804
     0.2296   0.4352   1.0039   2.1950   3.2151   4.5454   5.7882   7.1891
     7.8370   8.2946

          k = 0.1250 0.2500 0.0000 ( 11878 PWs)   bands (ev):

   -43.9445  -2.9346  -2.6714  -2.4677  -2.4201  -2.3616  -2.2148  -2.1026
    -1.9983  -1.8520  -1.7029  -1.6317  -1.5392  -1.4769  -1.3910  -1.2613
    -1.2398  -1.2071  -1.1202  -1.0941  -1.0135  -0.8902  -0.8194  -0.6561
    -0.5067  -0.4955  -0.4400  -0.2827  -0.2366  -0.1107   0.0421   0.1685
     0.3774   0.7416   1.8470   3.1118   4.1175   5.6183   7.0685   7.9363
     8.6016   8.7998

          k = 0.1250 0.3750 0.0000 ( 11868 PWs)   bands (ev):

   -43.9407  -2.7559  -2.6804  -2.5300  -2.4382  -2.1849  -2.1376  -2.0607
    -1.9279  -1.7097  -1.6718  -1.6110  -1.4958  -1.4588  -1.4199  -1.2987
    -1.1815  -1.1507  -1.1287  -0.9577  -0.8950  -0.7576  -0.7278  -0.5334
    -0.4438  -0.2475  -0.1078  -0.0087   0.1080   0.2062   0.2432   0.8030
     1.0570   1.8328   3.0374   4.2885   5.2956   5.8186   6.1434   6.9453
     7.4448   8.3787

          k = 0.1250-0.5000 0.0000 ( 11862 PWs)   bands (ev):

   -43.9392  -2.8327  -2.7619  -2.6017  -2.5004  -2.2303  -2.0517  -2.0195
    -1.7707  -1.7180  -1.6517  -1.6437  -1.6175  -1.4775  -1.4695  -1.3483
    -1.2070  -1.1711  -1.1514  -0.8811  -0.8133  -0.6948  -0.6400  -0.3726
    -0.2498  -0.1915  -0.0713   0.0962   0.2030   0.2712   0.3379   2.7151
     2.9726   3.1202   3.3054   3.5074   4.0226   5.0838   5.5660   6.3533
     7.1072   7.9267

          k = 0.1250-0.3750 0.0000 ( 11868 PWs)   bands (ev):

   -43.9407  -2.7559  -2.6804  -2.5300  -2.4382  -2.1849  -2.1376  -2.0607
    -1.9279  -1.7097  -1.6718  -1.6110  -1.4958  -1.4588  -1.4199  -1.2987
    -1.1815  -1.1507  -1.1287  -0.9577  -0.8950  -0.7576  -0.7278  -0.5334
    -0.4438  -0.2475  -0.1078  -0.0087   0.1080   0.2062   0.2432   0.8030
     1.0570   1.8328   3.0374   4.2885   5.2956   5.8186   6.1434   6.9453
     7.4448   8.3786

          k = 0.1250-0.2500 0.0000 ( 11878 PWs)   bands (ev):

   -43.9445  -2.9346  -2.6714  -2.4677  -2.4201  -2.3616  -2.2148  -2.1026
    -1.9983  -1.8520  -1.7029  -1.6317  -1.5392  -1.4769  -1.3910  -1.2613
    -1.2398  -1.2071  -1.1202  -1.0941  -1.0135  -0.8902  -0.8194  -0.6561
    -0.5067  -0.4955  -0.4400  -0.2827  -0.2366  -0.1107   0.0421   0.1685
     0.3774   0.7416   1.8470   3.1118   4.1175   5.6183   7.0685   7.9364
     8.6015   8.8000

          k = 0.1250-0.1250 0.0000 ( 11887 PWs)   bands (ev):

   -43.9483  -3.6209  -3.0844  -2.7243  -2.6158  -2.5027  -2.4620  -2.3863
    -2.2118  -2.0256  -1.9191  -1.7092  -1.6568  -1.6131  -1.3399  -1.3051
    -1.1947  -1.1862  -1.1856  -0.9645  -0.8817  -0.7919  -0.6528  -0.6014
    -0.4947  -0.4389  -0.4052  -0.2581  -0.1873  -0.0097   0.0773   0.0804
     0.2296   0.4352   1.0039   2.1950   3.2151   4.5454   5.7882   7.1891
     7.8370   8.2947

          k = 0.2500-0.0000 0.0000 ( 11877 PWs)   bands (ev):

   -43.9461  -3.1799  -2.9288  -2.6773  -2.6714  -2.5823  -2.2736  -2.2590
    -2.0461  -1.8117  -1.6493  -1.4666  -1.3854  -1.3510  -1.2518  -1.2215
    -1.1956  -1.1673  -1.1293  -1.0020  -0.9551  -0.8531  -0.7166  -0.7036
    -0.6183  -0.5650  -0.3547  -0.2587  -0.2193  -0.0168   0.1179   0.1600
     0.3404   0.3722   1.3598   2.7583   3.7937   5.2506   6.6919   7.6417
     8.3194   8.5379

          k = 0.2500 0.1250 0.0000 ( 11878 PWs)   bands (ev):

   -43.9445  -2.9346  -2.6714  -2.4677  -2.4201  -2.3616  -2.2148  -2.1026
    -1.9983  -1.8520  -1.7029  -1.6317  -1.5392  -1.4769  -1.3910  -1.2613
    -1.2398  -1.2071  -1.1202  -1.0941  -1.0135  -0.8902  -0.8194  -0.6561
    -0.5067  -0.4955  -0.4400  -0.2827  -0.2366  -0.1107   0.0421   0.1685
     0.3774   0.7416   1.8470   3.1118   4.1175   5.6183   7.0685   7.9361
     8.6015   8.7998

          k = 0.2500 0.2500 0.0000 ( 11857 PWs)   bands (ev):

   -43.9407  -2.5346  -2.3202  -2.2550  -2.2216  -2.1004  -2.0739  -2.0313
    -1.8709  -1.8663  -1.7974  -1.7279  -1.7051  -1.6999  -1.5589  -1.4817
    -1.3431  -1.2383  -1.0817  -0.8143  -0.7976  -0.6913  -0.6403  -0.5634
    -0.5181  -0.4670  -0.3755  -0.3538  -0.2518  -0.0508   0.0545   0.4202
     0.6645   1.6277   2.8191   3.9773   5.0066   6.5863   8.0620   8.6440
     8.8186   9.5625

          k = 0.2500 0.3750 0.0000 ( 11826 PWs)   bands (ev):

   -43.9370  -2.5394  -2.4840  -2.4541  -2.3637  -2.3288  -2.2915  -2.2188
    -2.1098  -1.9817  -1.7967  -1.7826  -1.6258  -1.4544  -1.3025  -1.2493
    -1.1589  -1.0870  -0.8898  -0.7444  -0.6763  -0.6137  -0.5818  -0.4503
    -0.4093  -0.1697  -0.1115   0.1219   0.1498   0.1786   0.3691   1.2634
     1.9571   2.9788   4.1632   5.2339   6.2857   6.4890   6.9382   7.7766
     8.0520   9.0078

          k = 0.2500-0.5000 0.0000 ( 11818 PWs)   bands (ev):

   -43.9354  -2.6225  -2.5816  -2.5303  -2.5112  -2.4401  -2.3651  -2.3067
    -2.1857  -2.0515  -1.8885  -1.8340  -1.6334  -1.4415  -1.2202  -1.0248
    -1.0200  -0.8683  -0.8637  -0.7929  -0.6624  -0.6556  -0.6030  -0.3943
    -0.2287  -0.0267   0.0707   0.2316   0.3346   0.3360   0.3965   3.4888
     3.6478   4.0195   4.2720   4.8187   5.2793   5.9969   6.3381   7.1012
     7.6363   8.5094

          k = 0.2500-0.3750 0.0000 ( 11826 PWs)   bands (ev):

   -43.9370  -2.5394  -2.4840  -2.4541  -2.3637  -2.3288  -2.2915  -2.2188
    -2.1098  -1.9817  -1.7967  -1.7826  -1.6258  -1.4544  -1.3025  -1.2493
    -1.1589  -1.0870  -0.8898  -0.7444  -0.6763  -0.6137  -0.5818  -0.4503
    -0.4093  -0.1697  -0.1115   0.1219   0.1498   0.1786   0.3691   1.2634
     1.9571   2.9788   4.1632   5.2339   6.2857   6.4890   6.9382   7.7766
     8.0520   9.0080

          k = 0.2500-0.2500 0.0000 ( 11857 PWs)   bands (ev):

   -43.9407  -2.5346  -2.3202  -2.2550  -2.2216  -2.1004  -2.0739  -2.0313
    -1.8709  -1.8663  -1.7974  -1.7279  -1.7051  -1.6999  -1.5589  -1.4817
    -1.3431  -1.2383  -1.0817  -0.8143  -0.7976  -0.6913  -0.6403  -0.5634
    -0.5181  -0.4670  -0.3755  -0.3538  -0.2518  -0.0508   0.0545   0.4202
     0.6645   1.6277   2.8191   3.9773   5.0066   6.5863   8.0619   8.6440
     8.8186   9.5626

          k = 0.2500-0.1250 0.0000 ( 11878 PWs)   bands (ev):

   -43.9445  -2.9346  -2.6714  -2.4677  -2.4201  -2.3616  -2.2148  -2.1026
    -1.9983  -1.8520  -1.7029  -1.6317  -1.5392  -1.4769  -1.3910  -1.2613
    -1.2398  -1.2071  -1.1202  -1.0941  -1.0135  -0.8902  -0.8194  -0.6561
    -0.5067  -0.4955  -0.4400  -0.2827  -0.2366  -0.1107   0.0421   0.1685
     0.3774   0.7416   1.8470   3.1118   4.1175   5.6183   7.0685   7.9362
     8.6016   8.7997

          k = 0.3750-0.0000 0.0000 ( 11873 PWs)   bands (ev):

   -43.9423  -2.9384  -2.8638  -2.6867  -2.5925  -2.3713  -2.1663  -2.0381
    -1.8285  -1.6419  -1.5721  -1.4532  -1.4166  -1.4042  -1.3669  -1.2319
    -1.2024  -1.1768  -1.1576  -0.8568  -0.8282  -0.8139  -0.6228  -0.5130
    -0.3142  -0.2299  -0.0400   0.0024   0.1111   0.2769   0.3116   0.5665
     0.7616   1.1496   2.4898   3.8939   4.9114   5.4996   5.8382   6.6628
     7.2423   8.1765

          k = 0.3750 0.1250 0.0000 ( 11868 PWs)   bands (ev):

   -43.9407  -2.7559  -2.6804  -2.5300  -2.4382  -2.1849  -2.1376  -2.0607
    -1.9279  -1.7097  -1.6718  -1.6110  -1.4958  -1.4588  -1.4199  -1.2987
    -1.1815  -1.1507  -1.1287  -0.9577  -0.8950  -0.7576  -0.7278  -0.5334
    -0.4438  -0.2475  -0.1078  -0.0087   0.1080   0.2062   0.2432   0.8030
     1.0570   1.8328   3.0374   4.2885   5.2956   5.8186   6.1434   6.9453
     7.4448   8.3786

          k = 0.3750 0.2500 0.0000 ( 11826 PWs)   bands (ev):

   -43.9370  -2.5394  -2.4840  -2.4541  -2.3637  -2.3288  -2.2915  -2.2188
    -2.1098  -1.9817  -1.7967  -1.7826  -1.6258  -1.4544  -1.3025  -1.2493
    -1.1589  -1.0870  -0.8898  -0.7444  -0.6763  -0.6137  -0.5818  -0.4503
    -0.4093  -0.1697  -0.1115   0.1219   0.1498   0.1786   0.3691   1.2634
     1.9571   2.9788   4.1632   5.2339   6.2858   6.4890   6.9382   7.7766
     8.0520   9.0079

          k = 0.3750 0.3750 0.0000 ( 11799 PWs)   bands (ev):

   -43.9332  -2.7501  -2.7221  -2.6910  -2.6448  -2.4830  -2.4306  -2.4159
    -2.3989  -2.1171  -1.9908  -1.9583  -1.8538  -1.4682  -1.3495  -1.1045
    -0.7920  -0.7432  -0.4837  -0.3464  -0.2848  -0.2277  -0.0694  -0.0619
     0.0148   0.0302   0.1404   0.1747   0.1853   0.2802   0.4483   2.4711
     3.3149   4.4331   5.5990   6.3595   6.6127   7.0976   7.7640   8.2146
     9.2608   9.5598

          k = 0.3750-0.5000 0.0000 ( 11750 PWs)   bands (ev):

   -43.9316  -2.8591  -2.8459  -2.7767  -2.7739  -2.5960  -2.5283  -2.5215
    -2.4976  -2.2667  -2.1039  -1.9867  -1.9314  -1.4325  -1.2630  -1.0643
    -0.6298  -0.6168  -0.3377  -0.2384  -0.1451  -0.1182   0.0248   0.0298
     0.0929   0.1879   0.3089   0.3374   0.4037   0.4101   0.5599   4.4661
     4.5279   5.1995   5.3263   6.2413   6.4758   7.4682   7.5569   8.5304
     8.5601   9.6267

          k = 0.3750-0.3750 0.0000 ( 11799 PWs)   bands (ev):

   -43.9332  -2.7501  -2.7221  -2.6910  -2.6448  -2.4830  -2.4306  -2.4159
    -2.3989  -2.1171  -1.9908  -1.9583  -1.8538  -1.4682  -1.3495  -1.1045
    -0.7920  -0.7432  -0.4837  -0.3464  -0.2848  -0.2277  -0.0694  -0.0619
     0.0148   0.0302   0.1404   0.1747   0.1853   0.2802   0.4483   2.4711
     3.3149   4.4331   5.5990   6.3595   6.6127   7.0976   7.7640   8.2146
     9.2615   9.5597

          k = 0.3750-0.2500 0.0000 ( 11826 PWs)   bands (ev):

   -43.9370  -2.5394  -2.4840  -2.4541  -2.3637  -2.3288  -2.2915  -2.2188
    -2.1098  -1.9817  -1.7967  -1.7826  -1.6258  -1.4544  -1.3025  -1.2493
    -1.1589  -1.0870  -0.8898  -0.7444  -0.6763  -0.6137  -0.5818  -0.4503
    -0.4093  -0.1697  -0.1115   0.1219   0.1498   0.1786   0.3691   1.2634
     1.9571   2.9788   4.1632   5.2339   6.2857   6.4890   6.9382   7.7766
     8.0520   9.0079

          k = 0.3750-0.1250 0.0000 ( 11868 PWs)   bands (ev):

   -43.9407  -2.7559  -2.6804  -2.5300  -2.4382  -2.1849  -2.1376  -2.0607
    -1.9279  -1.7097  -1.6718  -1.6110  -1.4958  -1.4588  -1.4199  -1.2987
    -1.1815  -1.1507  -1.1287  -0.9577  -0.8950  -0.7576  -0.7278  -0.5334
    -0.4438  -0.2475  -0.1078  -0.0087   0.1080   0.2062   0.2432   0.8030
     1.0570   1.8328   3.0374   4.2885   5.2956   5.8186   6.1434   6.9453
     7.4448   8.3787

          k =-0.5000 0.0000 0.0000 ( 11796 PWs)   bands (ev):

   -43.9405  -2.9986  -2.9323  -2.7029  -2.6288  -2.2264  -2.1641  -1.9398
    -1.7924  -1.5562  -1.5437  -1.5260  -1.4720  -1.4458  -1.4240  -1.2838
    -1.2582  -1.2351  -1.0988  -0.9679  -0.8172  -0.5547  -0.5498  -0.4267
    -0.2616  -0.0257   0.0581   0.0818   0.1996   0.2584   0.2855   2.3368
     2.6670   2.7798   2.8006   2.8709   3.4461   4.8218   5.2909   6.1255
     6.9207   7.7671

          k =-0.5000 0.1250 0.0000 ( 11862 PWs)   bands (ev):

   -43.9392  -2.8327  -2.7619  -2.6017  -2.5004  -2.2303  -2.0517  -2.0195
    -1.7707  -1.7180  -1.6517  -1.6437  -1.6175  -1.4775  -1.4695  -1.3483
    -1.2070  -1.1711  -1.1514  -0.8811  -0.8133  -0.6948  -0.6400  -0.3726
    -0.2498  -0.1915  -0.0713   0.0962   0.2030   0.2712   0.3379   2.7151
     2.9726   3.1201   3.3054   3.5074   4.0226   5.0838   5.5661   6.3533
     7.1072   7.9266

          k =-0.5000 0.2500 0.0000 ( 11818 PWs)   bands (ev):

   -43.9354  -2.6225  -2.5816  -2.5303  -2.5112  -2.4401  -2.3651  -2.3067
    -2.1857  -2.0515  -1.8885  -1.8340  -1.6334  -1.4415  -1.2202  -1.0248
    -1.0200  -0.8683  -0.8637  -0.7929  -0.6624  -0.6556  -0.6030  -0.3943
    -0.2287  -0.0267   0.0707   0.2316   0.3346   0.3360   0.3965   3.4888
     3.6478   4.0195   4.2720   4.8187   5.2793   5.9969   6.3382   7.1013
     7.6363   8.5093

          k =-0.5000 0.3750 0.0000 ( 11750 PWs)   bands (ev):

   -43.9316  -2.8591  -2.8459  -2.7767  -2.7739  -2.5960  -2.5283  -2.5215
    -2.4976  -2.2667  -2.1039  -1.9867  -1.9314  -1.4325  -1.2630  -1.0643
    -0.6298  -0.6168  -0.3377  -0.2384  -0.1451  -0.1182   0.0248   0.0298
     0.0929   0.1879   0.3089   0.3374   0.4037   0.4101   0.5599   4.4661
     4.5279   5.1995   5.3263   6.2413   6.4758   7.4681   7.5569   8.5304
     8.5599   9.6266

          k =-0.5000-0.5000 0.0000 ( 11668 PWs)   bands (ev):

   -43.9298  -2.9962  -2.9802  -2.8729  -2.8729  -2.7332  -2.6674  -2.5826
    -2.5826  -2.4405  -2.1243  -2.0451  -2.0451  -1.3189  -1.3189  -1.0129
    -0.4887  -0.4887  -0.2924  -0.1462  -0.0090   0.1935   0.2076   0.2376
     0.2506   0.2506   0.5023   0.5055   0.5687   0.5777   0.7855   5.1007
     5.1007   5.9959   5.9959   7.2612   7.2612   8.6564   8.6565   9.3894
     9.4821   9.9513

     the Fermi energy is     3.2248 ev

!    total energy              =    -520.56432309 Ry
     estimated scf accuracy    <       0.00000038 Ry
     smearing contrib. (-TS)   =      -0.00109792 Ry
     internal energy E=F+TS    =    -520.56322517 Ry

     The total energy is F=E-TS. E is the sum of the following terms:
     one-electron contribution =   -6271.95163818 Ry
     hartree contribution      =    3185.65999497 Ry
     xc contribution           =    -137.63182982 Ry
     ewald contribution        =    2703.54901302 Ry
     DFT-D3 Dispersion         =      -0.18876516 Ry

     convergence has been achieved in  11 iterations

     negative rho (up, down):  8.833E-06 0.000E+00

     Forces acting on atoms (cartesian axes, Ry/au):

     atom    1 type  2   force =     0.00000224    0.00000345    0.00077112
     atom    2 type  2   force =     0.00000181   -0.00000116   -0.00062498
     atom    3 type  2   force =    -0.00000217    0.00000124   -0.00169368
     atom    4 type  2   force =     0.00000006    0.00000046    0.00127883
     atom    5 type  2   force =    -0.00000259    0.00000020   -0.09474398
     atom    6 type  2   force =     0.00000041   -0.00000304   -0.00391919
     atom    7 type  1   force =     0.00000022   -0.00000114    0.09893188
     The non-local contrib.  to forces
     atom    1 type  2   force =     0.00000192    0.00000384   -0.02691978
     atom    2 type  2   force =    -0.00000268   -0.00000283   -0.09079013
     atom    3 type  2   force =    -0.00000264    0.00000219   -0.00428898
     atom    4 type  2   force =     0.00000008    0.00000082    0.00028433
     atom    5 type  2   force =    -0.00000212   -0.00000122    0.19180354
     atom    6 type  2   force =    -0.00000021   -0.00000261    0.02662287
     atom    7 type  1   force =     0.00000027   -0.00000071    0.06058779
     The ionic contribution  to forces
     atom    1 type  2   force =     0.00000000    0.00000000  -94.61595637
     atom    2 type  2   force =    -0.00000000   -0.00000000 -150.71924080
     atom    3 type  2   force =     0.00000627    0.00002582   21.68557910
     atom    4 type  2   force =    -0.00000010   -0.00000041  -36.49362274
     atom    5 type  2   force =     0.00000914    0.00003067  135.39050786
     atom    6 type  2   force =    -0.00001535   -0.00005622   80.08697250
     atom    7 type  1   force =     0.00000004    0.00000014   44.66576045
     The local contribution  to forces
     atom    1 type  2   force =    -0.00000247    0.00000020   94.63941122
     atom    2 type  2   force =     0.00000113    0.00000049  150.80001778
     atom    3 type  2   force =    -0.00000610   -0.00002630  -21.68348840
     atom    4 type  2   force =     0.00000122   -0.00000029   36.49370809
     atom    5 type  2   force =    -0.00000976   -0.00003026 -135.68469834
     atom    6 type  2   force =     0.00001509    0.00005442  -80.11614230
     atom    7 type  1   force =    -0.00000056   -0.00000057  -44.62600512
     The core correction contribution to forces
     atom    1 type  2   force =    -0.00000008    0.00000002    0.00007360
     atom    2 type  2   force =     0.00000001   -0.00000006    0.00623644
     atom    3 type  2   force =    -0.00000001   -0.00000008    0.00045654
     atom    4 type  2   force =     0.00000006    0.00000001   -0.00008649
     atom    5 type  2   force =    -0.00000006   -0.00000009    0.01132134
     atom    6 type  2   force =     0.00000001    0.00000012    0.00031963
     atom    7 type  1   force =     0.00000000    0.00000000    0.00000000
     The Hubbard contrib.    to forces
     atom    1 type  2   force =     0.00000000    0.00000000    0.00000000
     atom    2 type  2   force =     0.00000000    0.00000000    0.00000000
     atom    3 type  2   force =     0.00000000    0.00000000    0.00000000
     atom    4 type  2   force =     0.00000000    0.00000000    0.00000000
     atom    5 type  2   force =     0.00000000    0.00000000    0.00000000
     atom    6 type  2   force =     0.00000000    0.00000000    0.00000000
     atom    7 type  1   force =     0.00000000    0.00000000    0.00000000
     The SCF correction term to forces
     atom    1 type  2   force =     0.00000188   -0.00000034   -0.00096985
     atom    2 type  2   force =     0.00000236    0.00000151   -0.00104634
     atom    3 type  2   force =    -0.00000066   -0.00000005    0.00027734
     atom    4 type  2   force =    -0.00000219    0.00000060    0.00012439
     atom    5 type  2   force =    -0.00000076    0.00000144    0.00129588
     atom    6 type  2   force =    -0.00000016    0.00000138    0.00180747
     atom    7 type  1   force =    -0.00000052    0.00000027    0.00024073

     DFT-D3 dispersion contribution to forces:
     atom    1 type  2   force =    -0.00000000   -0.00000000    0.00515420
     atom    2 type  2   force =    -0.00000000    0.00000000    0.00421996
     atom    3 type  2   force =    -0.00000001   -0.00000006   -0.00020740
     atom    4 type  2   force =     0.00000000    0.00000000    0.00089314
     atom    5 type  2   force =    -0.00000002   -0.00000008   -0.00495236
     atom    6 type  2   force =     0.00000004    0.00000014   -0.00347747
     atom    7 type  1   force =    -0.00000000   -0.00000000   -0.00163007

     Total force =     0.137058     Total SCF correction =     0.002671


     Computing stress (Cartesian axis) and pressure


     negative rho (up, down):  8.833E-06 0.000E+00
          total   stress  (Ry/bohr**3)                   (kbar)     P=       -4.99
  -0.00013386  -0.00000000   0.00000000          -19.69       -0.00        0.00
  -0.00000000  -0.00013384   0.00000000           -0.00      -19.69        0.00
   0.00000000   0.00000000   0.00016597            0.00        0.00       24.41


     BFGS Geometry Optimization
     Energy error            =      0.0E+00 Ry
     Gradient error          =      9.9E-02 Ry/Bohr

     number of scf cycles    =   1
     number of bfgs steps    =   0

     energy             new  =    -520.5643230897 Ry

     new trust radius        =       0.0989318816 bohr
     new conv_thr            =       0.0000010000 Ry


ATOMIC_POSITIONS (angstrom)
Ag            2.1766648453        0.7255563788       12.0525862376
Ag            0.7255555128        2.1766630479        9.9996692737
Ag            2.1766625138        0.7255552086       16.1556382808
Ag            0.7255545877        2.1766639022       14.1050330878
Ag            2.1766606559        0.7255515733       20.1906886818
Ag            0.7255577845        2.1766745228       18.1856316744
Li            2.1766621421        0.7255508647       22.2931775349



     Writing config-only to output data dir ./Ag_mp-124_100_ontop_0/Ag_mp-124_100_ontop_0.save/
     NEW-OLD atomic charge density approx. for the potential

     negative rho (up, down):  1.356E-05 0.000E+00

     total cpu time spent up to now is       31.4 secs

     per-process dynamical memory:   188.1 Mb

     Self-consistent Calculation

     iteration #  1     ecut=    55.00 Ry     beta= 0.30
     Davidson diagonalization with overlap
     ethr =  1.00E-06,  avg # of iterations =  8.1

     negative rho (up, down):  1.193E-05 0.000E+00

     total cpu time spent up to now is       33.7 secs

     total energy              =    -520.57933131 Ry
     estimated scf accuracy    <       0.00091189 Ry

     iteration #  2     ecut=    55.00 Ry     beta= 0.30
     Davidson diagonalization with overlap
     ethr =  1.32E-06,  avg # of iterations =  5.2

     negative rho (up, down):  1.179E-05 0.000E+00

     total cpu time spent up to now is       34.5 secs

     total energy              =    -520.57867307 Ry
     estimated scf accuracy    <       0.02393931 Ry

     iteration #  3     ecut=    55.00 Ry     beta= 0.30
     Davidson diagonalization with overlap
     ethr =  1.32E-06,  avg # of iterations =  4.1

     negative rho (up, down):  1.156E-05 0.000E+00

     total cpu time spent up to now is       35.2 secs

     total energy              =    -520.57933583 Ry
     estimated scf accuracy    <       0.00349282 Ry

     iteration #  4     ecut=    55.00 Ry     beta= 0.30
     Davidson diagonalization with overlap
     ethr =  1.32E-06,  avg # of iterations =  2.9

     negative rho (up, down):  1.092E-05 0.000E+00

     total cpu time spent up to now is       36.0 secs

     total energy              =    -520.57936449 Ry
     estimated scf accuracy    <       0.00318381 Ry

     iteration #  5     ecut=    55.00 Ry     beta= 0.30
     Davidson diagonalization with overlap
     ethr =  1.32E-06,  avg # of iterations =  1.3

     negative rho (up, down):  1.023E-05 0.000E+00

     total cpu time spent up to now is       36.6 secs

     total energy              =    -520.57950923 Ry
     estimated scf accuracy    <       0.00002249 Ry

     iteration #  6     ecut=    55.00 Ry     beta= 0.30
     Davidson diagonalization with overlap
     ethr =  3.26E-08,  avg # of iterations =  2.1

     negative rho (up, down):  9.662E-06 0.000E+00

     total cpu time spent up to now is       37.3 secs

     total energy              =    -520.57951219 Ry
     estimated scf accuracy    <       0.00000725 Ry

     iteration #  7     ecut=    55.00 Ry     beta= 0.30
     Davidson diagonalization with overlap
     ethr =  1.05E-08,  avg # of iterations =  2.0

     negative rho (up, down):  9.634E-06 0.000E+00

     total cpu time spent up to now is       37.9 secs

     total energy              =    -520.57951293 Ry
     estimated scf accuracy    <       0.00000170 Ry

     iteration #  8     ecut=    55.00 Ry     beta= 0.30
     Davidson diagonalization with overlap
     ethr =  2.46E-09,  avg # of iterations =  2.7

     negative rho (up, down):  9.373E-06 0.000E+00

     total cpu time spent up to now is       38.3 secs

     End of self-consistent calculation

          k = 0.0000 0.0000 0.0000 ( 11951 PWs)   bands (ev):

   -43.9083  -4.2496  -3.6418  -3.0537  -2.9289  -2.8649  -2.7848  -2.7329
    -2.4093  -2.3943  -2.0417  -1.7296  -1.5205  -1.4700  -1.4700  -1.2367
    -1.2330  -1.2330  -0.8424  -0.8424  -0.6491  -0.5209  -0.5047  -0.3597
    -0.3575  -0.3575  -0.1942  -0.0796   0.0145   0.1051   0.1051   0.2029
     0.3064   0.4359   0.4359   1.2432   2.4201   3.6299   4.6098   6.6515
     7.2621   7.7772

          k = 0.0000 0.1250 0.0000 ( 11903 PWs)   bands (ev):

   -43.9067  -3.9454  -3.3816  -2.9195  -2.7561  -2.7348  -2.6514  -2.5379
    -2.3344  -2.1706  -1.9006  -1.6655  -1.6266  -1.4200  -1.4038  -1.3245
    -1.2262  -1.1568  -1.0365  -0.9477  -0.7756  -0.6444  -0.4997  -0.4928
    -0.4313  -0.4080  -0.2980  -0.1763  -0.1317  -0.0042   0.0959   0.1600
     0.3018   0.4394   0.5231   1.7646   2.8408   4.0930   5.2460   6.9209
     7.5496   8.0370

          k = 0.0000 0.2500 0.0000 ( 11877 PWs)   bands (ev):

   -43.9028  -3.2093  -2.9518  -2.6944  -2.6705  -2.5920  -2.2819  -2.2651
    -2.0387  -1.7838  -1.5946  -1.4594  -1.3518  -1.3511  -1.2518  -1.2408
    -1.1993  -1.1660  -1.1312  -1.0077  -0.9565  -0.8594  -0.7126  -0.6946
    -0.6090  -0.5533  -0.3420  -0.2474  -0.2291  -0.0164   0.1141   0.1638
     0.3334   0.3626   1.3559   2.7349   3.7695   5.2245   6.6759   7.6407
     8.3276   8.5441

          k = 0.0000 0.3750 0.0000 ( 11873 PWs)   bands (ev):

   -43.8991  -2.9592  -2.8853  -2.6935  -2.6046  -2.3585  -2.1521  -2.0133
    -1.7763  -1.6451  -1.5506  -1.4619  -1.4329  -1.4105  -1.3912  -1.2403
    -1.2037  -1.1850  -1.1616  -0.8479  -0.8162  -0.8045  -0.6151  -0.4909
    -0.2920  -0.2352  -0.0414   0.0114   0.1051   0.2717   0.3024   0.5713
     0.7509   1.1562   2.4859   3.8520   4.8705   5.4816   5.8315   6.6479
     7.2067   8.1511

          k = 0.0000-0.5000 0.0000 ( 11796 PWs)   bands (ev):

   -43.8973  -3.0121  -2.9562  -2.6992  -2.6464  -2.1959  -2.1402  -1.8825
    -1.7707  -1.5674  -1.5629  -1.5333  -1.4955  -1.4677  -1.4337  -1.2753
    -1.2617  -1.2393  -1.1017  -0.9564  -0.8049  -0.5443  -0.4947  -0.4332
    -0.2552  -0.0244   0.0580   0.0803   0.1887   0.2517   0.2779   2.3923
     2.6598   2.7665   2.7912   2.8594   3.4343   4.7839   5.1548   6.1123
     6.9120   7.7463

          k = 0.1250-0.0000 0.0000 ( 11903 PWs)   bands (ev):

   -43.9067  -3.9454  -3.3816  -2.9195  -2.7561  -2.7348  -2.6514  -2.5379
    -2.3344  -2.1706  -1.9006  -1.6655  -1.6266  -1.4200  -1.4038  -1.3245
    -1.2262  -1.1568  -1.0365  -0.9477  -0.7756  -0.6444  -0.4997  -0.4928
    -0.4313  -0.4080  -0.2980  -0.1763  -0.1317  -0.0042   0.0959   0.1600
     0.3018   0.4394   0.5231   1.7646   2.8408   4.0930   5.2460   6.9209
     7.5496   8.0370

          k = 0.1250 0.1250 0.0000 ( 11887 PWs)   bands (ev):

   -43.9051  -3.6491  -3.1120  -2.7348  -2.6407  -2.5072  -2.4698  -2.3797
    -2.2075  -2.0303  -1.9174  -1.7212  -1.6226  -1.5799  -1.3158  -1.2979
    -1.2082  -1.1804  -1.1675  -0.9510  -0.8613  -0.7894  -0.6626  -0.6075
    -0.4913  -0.4331  -0.3876  -0.2445  -0.1935  -0.0197   0.0667   0.0827
     0.2238   0.4286   1.0003   2.1834   3.1955   4.5203   5.7767   7.1941
     7.8388   8.2975

          k = 0.1250 0.2500 0.0000 ( 11878 PWs)   bands (ev):

   -43.9013  -2.9625  -2.6922  -2.4752  -2.4349  -2.3740  -2.2202  -2.1085
    -1.9977  -1.8395  -1.6857  -1.6116  -1.5105  -1.4674  -1.3812  -1.2695
    -1.2379  -1.1930  -1.1266  -1.0906  -1.0045  -0.8915  -0.8225  -0.6464
    -0.4973  -0.4879  -0.4331  -0.2851  -0.2428  -0.1053   0.0367   0.1708
     0.3690   0.7437   1.8453   3.0851   4.0966   5.5925   7.0512   7.9360
     8.6137   8.8082

          k = 0.1250 0.3750 0.0000 ( 11868 PWs)   bands (ev):

   -43.8975  -2.7684  -2.7043  -2.5311  -2.4569  -2.1679  -2.1234  -2.0718
    -1.9186  -1.7038  -1.6640  -1.6132  -1.4732  -1.4624  -1.4337  -1.2999
    -1.1752  -1.1419  -1.1237  -0.9565  -0.8962  -0.7317  -0.7113  -0.5314
    -0.4374  -0.2476  -0.1171   0.0059   0.1017   0.1986   0.2334   0.8028
     1.0591   1.8422   3.0320   4.2442   5.2620   5.8092   6.1414   6.9285
     7.4123   8.3508

          k = 0.1250-0.5000 0.0000 ( 11862 PWs)   bands (ev):

   -43.8960  -2.8367  -2.7894  -2.5942  -2.5214  -2.2179  -2.0596  -1.9701
    -1.7869  -1.7208  -1.6500  -1.6444  -1.6276  -1.4765  -1.4613  -1.3510
    -1.2076  -1.1737  -1.1370  -0.8687  -0.7612  -0.6947  -0.6319  -0.3615
    -0.2526  -0.1906  -0.0803   0.0968   0.1941   0.2662   0.3287   2.7573
     2.9658   3.1189   3.2995   3.5024   4.0114   5.0530   5.4405   6.3389
     7.0956   7.9029

          k = 0.1250-0.3750 0.0000 ( 11868 PWs)   bands (ev):

   -43.8975  -2.7684  -2.7043  -2.5311  -2.4569  -2.1679  -2.1234  -2.0718
    -1.9186  -1.7038  -1.6640  -1.6132  -1.4732  -1.4624  -1.4337  -1.2999
    -1.1752  -1.1419  -1.1237  -0.9565  -0.8962  -0.7317  -0.7113  -0.5314
    -0.4374  -0.2476  -0.1171   0.0059   0.1017   0.1986   0.2334   0.8028
     1.0591   1.8422   3.0320   4.2442   5.2620   5.8092   6.1414   6.9284
     7.4123   8.3510

          k = 0.1250-0.2500 0.0000 ( 11878 PWs)   bands (ev):

   -43.9013  -2.9625  -2.6922  -2.4752  -2.4349  -2.3740  -2.2202  -2.1085
    -1.9977  -1.8395  -1.6857  -1.6116  -1.5105  -1.4674  -1.3812  -1.2695
    -1.2379  -1.1930  -1.1266  -1.0906  -1.0045  -0.8915  -0.8225  -0.6464
    -0.4973  -0.4878  -0.4331  -0.2851  -0.2428  -0.1053   0.0367   0.1708
     0.3690   0.7437   1.8453   3.0851   4.0966   5.5925   7.0512   7.9360
     8.6137   8.8083

          k = 0.1250-0.1250 0.0000 ( 11887 PWs)   bands (ev):

   -43.9051  -3.6491  -3.1120  -2.7348  -2.6407  -2.5072  -2.4698  -2.3797
    -2.2075  -2.0303  -1.9174  -1.7212  -1.6226  -1.5799  -1.3158  -1.2979
    -1.2082  -1.1804  -1.1675  -0.9510  -0.8613  -0.7894  -0.6626  -0.6075
    -0.4913  -0.4331  -0.3876  -0.2445  -0.1935  -0.0197   0.0667   0.0827
     0.2238   0.4286   1.0003   2.1834   3.1955   4.5203   5.7767   7.1941
     7.8388   8.2976

          k = 0.2500-0.0000 0.0000 ( 11877 PWs)   bands (ev):

   -43.9028  -3.2093  -2.9518  -2.6944  -2.6705  -2.5920  -2.2819  -2.2651
    -2.0387  -1.7838  -1.5946  -1.4594  -1.3518  -1.3511  -1.2518  -1.2408
    -1.1993  -1.1660  -1.1312  -1.0077  -0.9565  -0.8594  -0.7126  -0.6946
    -0.6090  -0.5533  -0.3420  -0.2474  -0.2291  -0.0164   0.1141   0.1638
     0.3334   0.3626   1.3559   2.7349   3.7695   5.2245   6.6759   7.6407
     8.3277   8.5450

          k = 0.2500 0.1250 0.0000 ( 11878 PWs)   bands (ev):

   -43.9013  -2.9625  -2.6922  -2.4752  -2.4349  -2.3740  -2.2202  -2.1085
    -1.9977  -1.8395  -1.6857  -1.6116  -1.5105  -1.4674  -1.3812  -1.2695
    -1.2379  -1.1930  -1.1266  -1.0906  -1.0045  -0.8915  -0.8225  -0.6464
    -0.4973  -0.4879  -0.4331  -0.2851  -0.2428  -0.1053   0.0367   0.1708
     0.3690   0.7437   1.8454   3.0851   4.0966   5.5925   7.0512   7.9360
     8.6136   8.8080

          k = 0.2500 0.2500 0.0000 ( 11857 PWs)   bands (ev):

   -43.8975  -2.5560  -2.3321  -2.2783  -2.2214  -2.1037  -2.0855  -2.0411
    -1.8845  -1.8784  -1.7890  -1.7434  -1.7089  -1.6969  -1.5407  -1.3913
    -1.3446  -1.2303  -1.0383  -0.8158  -0.8098  -0.6879  -0.6200  -0.5669
    -0.5282  -0.4706  -0.3861  -0.3399  -0.2611  -0.0488   0.0592   0.4148
     0.6690   1.6370   2.8170   3.9415   4.9907   6.5594   8.0408   8.6961
     8.8162   9.5630

          k = 0.2500 0.3750 0.0000 ( 11826 PWs)   bands (ev):

   -43.8938  -2.5487  -2.5050  -2.4674  -2.3830  -2.3254  -2.2990  -2.2272
    -2.1194  -1.9813  -1.7934  -1.7857  -1.6144  -1.4138  -1.2719  -1.2407
    -1.1523  -1.0630  -0.8559  -0.7401  -0.6749  -0.6178  -0.5877  -0.4569
    -0.4139  -0.1797  -0.0846   0.1127   0.1459   0.1730   0.3608   1.2622
     1.9651   2.9918   4.1510   5.1897   6.2730   6.4933   6.9464   7.7570
     8.0199   8.9735

          k = 0.2500-0.5000 0.0000 ( 11818 PWs)   bands (ev):

   -43.8922  -2.6160  -2.6048  -2.5530  -2.5314  -2.4361  -2.3787  -2.3122
    -2.1997  -2.0478  -1.8813  -1.8417  -1.6392  -1.3655  -1.1478  -1.0344
    -1.0052  -0.8789  -0.8572  -0.7881  -0.6596  -0.6453  -0.6091  -0.3861
    -0.2298  -0.0164   0.0635   0.2379   0.3247   0.3259   0.3859   3.5112
     3.6423   4.0351   4.2711   4.8171   5.2745   5.9784   6.2488   7.0785
     7.6110   8.4784

          k = 0.2500-0.3750 0.0000 ( 11826 PWs)   bands (ev):

   -43.8938  -2.5487  -2.5050  -2.4674  -2.3830  -2.3254  -2.2990  -2.2272
    -2.1194  -1.9813  -1.7934  -1.7857  -1.6144  -1.4138  -1.2719  -1.2407
    -1.1523  -1.0630  -0.8559  -0.7401  -0.6749  -0.6178  -0.5877  -0.4569
    -0.4139  -0.1797  -0.0846   0.1127   0.1459   0.1730   0.3608   1.2622
     1.9651   2.9918   4.1510   5.1897   6.2730   6.4933   6.9464   7.7570
     8.0199   8.9735

          k = 0.2500-0.2500 0.0000 ( 11857 PWs)   bands (ev):

   -43.8975  -2.5560  -2.3321  -2.2783  -2.2214  -2.1037  -2.0855  -2.0411
    -1.8845  -1.8784  -1.7890  -1.7434  -1.7089  -1.6969  -1.5407  -1.3913
    -1.3446  -1.2303  -1.0383  -0.8158  -0.8098  -0.6879  -0.6200  -0.5669
    -0.5282  -0.4706  -0.3861  -0.3399  -0.2611  -0.0488   0.0592   0.4148
     0.6690   1.6370   2.8170   3.9415   4.9907   6.5594   8.0408   8.6961
     8.8162   9.5631

          k = 0.2500-0.1250 0.0000 ( 11878 PWs)   bands (ev):

   -43.9013  -2.9625  -2.6922  -2.4752  -2.4349  -2.3740  -2.2202  -2.1085
    -1.9977  -1.8395  -1.6857  -1.6116  -1.5105  -1.4674  -1.3812  -1.2695
    -1.2379  -1.1930  -1.1266  -1.0906  -1.0045  -0.8915  -0.8225  -0.6464
    -0.4973  -0.4878  -0.4331  -0.2851  -0.2428  -0.1053   0.0367   0.1708
     0.3690   0.7437   1.8453   3.0851   4.0966   5.5925   7.0512   7.9360
     8.6136   8.8080

          k = 0.3750-0.0000 0.0000 ( 11873 PWs)   bands (ev):

   -43.8991  -2.9592  -2.8853  -2.6935  -2.6046  -2.3585  -2.1521  -2.0133
    -1.7763  -1.6451  -1.5506  -1.4619  -1.4329  -1.4105  -1.3912  -1.2403
    -1.2037  -1.1850  -1.1616  -0.8479  -0.8162  -0.8045  -0.6151  -0.4909
    -0.2920  -0.2352  -0.0414   0.0114   0.1051   0.2717   0.3024   0.5713
     0.7509   1.1562   2.4859   3.8520   4.8705   5.4816   5.8315   6.6479
     7.2067   8.1510

          k = 0.3750 0.1250 0.0000 ( 11868 PWs)   bands (ev):

   -43.8975  -2.7684  -2.7043  -2.5311  -2.4569  -2.1679  -2.1234  -2.0718
    -1.9186  -1.7038  -1.6640  -1.6132  -1.4732  -1.4624  -1.4337  -1.2999
    -1.1752  -1.1419  -1.1237  -0.9565  -0.8962  -0.7317  -0.7113  -0.5314
    -0.4374  -0.2476  -0.1171   0.0059   0.1017   0.1986   0.2334   0.8028
     1.0591   1.8422   3.0320   4.2442   5.2620   5.8092   6.1414   6.9284
     7.4123   8.3508

          k = 0.3750 0.2500 0.0000 ( 11826 PWs)   bands (ev):

   -43.8938  -2.5487  -2.5050  -2.4674  -2.3830  -2.3254  -2.2990  -2.2272
    -2.1194  -1.9813  -1.7934  -1.7857  -1.6144  -1.4138  -1.2719  -1.2407
    -1.1523  -1.0630  -0.8559  -0.7401  -0.6749  -0.6178  -0.5877  -0.4569
    -0.4139  -0.1797  -0.0846   0.1127   0.1459   0.1730   0.3608   1.2622
     1.9651   2.9918   4.1510   5.1897   6.2730   6.4933   6.9464   7.7570
     8.0199   8.9735

          k = 0.3750 0.3750 0.0000 ( 11799 PWs)   bands (ev):

   -43.8901  -2.7799  -2.7381  -2.7105  -2.6619  -2.4830  -2.4357  -2.4301
    -2.3995  -2.1078  -1.9785  -1.9483  -1.8638  -1.4436  -1.3333  -1.0130
    -0.7747  -0.7283  -0.4532  -0.3475  -0.2916  -0.2333  -0.0799  -0.0703
     0.0235   0.0476   0.1315   0.1645   0.1729   0.2737   0.4400   2.4694
     3.3270   4.4471   5.5724   6.3919   6.5703   7.1145   7.7432   8.1888
     9.2289   9.4978

          k = 0.3750-0.5000 0.0000 ( 11750 PWs)   bands (ev):

   -43.8884  -2.8943  -2.8595  -2.7976  -2.7903  -2.5950  -2.5472  -2.5203
    -2.5051  -2.2562  -2.0877  -1.9941  -1.9289  -1.3929  -1.2509  -0.9552
    -0.6127  -0.6065  -0.3396  -0.2447  -0.1264  -0.1036   0.0163   0.0275
     0.0855   0.2015   0.2941   0.3384   0.3916   0.3984   0.5480   4.4797
     4.5283   5.2234   5.3402   6.2361   6.4822   7.4127   7.5240   8.4794
     8.5306   9.5798

          k = 0.3750-0.3750 0.0000 ( 11799 PWs)   bands (ev):

   -43.8901  -2.7799  -2.7381  -2.7105  -2.6619  -2.4830  -2.4357  -2.4301
    -2.3995  -2.1078  -1.9785  -1.9483  -1.8638  -1.4436  -1.3333  -1.0130
    -0.7747  -0.7283  -0.4532  -0.3475  -0.2916  -0.2333  -0.0799  -0.0703
     0.0235   0.0476   0.1315   0.1645   0.1729   0.2737   0.4400   2.4694
     3.3270   4.4471   5.5724   6.3919   6.5703   7.1145   7.7432   8.1888
     9.2289   9.4978

          k = 0.3750-0.2500 0.0000 ( 11826 PWs)   bands (ev):

   -43.8938  -2.5487  -2.5050  -2.4674  -2.3830  -2.3254  -2.2990  -2.2272
    -2.1194  -1.9813  -1.7934  -1.7857  -1.6144  -1.4138  -1.2719  -1.2407
    -1.1523  -1.0630  -0.8559  -0.7401  -0.6749  -0.6178  -0.5877  -0.4569
    -0.4139  -0.1797  -0.0846   0.1127   0.1459   0.1730   0.3608   1.2622
     1.9651   2.9918   4.1510   5.1897   6.2730   6.4933   6.9464   7.7570
     8.0199   8.9735

          k = 0.3750-0.1250 0.0000 ( 11868 PWs)   bands (ev):

   -43.8975  -2.7684  -2.7043  -2.5311  -2.4569  -2.1679  -2.1234  -2.0718
    -1.9186  -1.7038  -1.6640  -1.6132  -1.4732  -1.4624  -1.4337  -1.2999
    -1.1752  -1.1419  -1.1237  -0.9565  -0.8962  -0.7317  -0.7113  -0.5314
    -0.4374  -0.2476  -0.1171   0.0059   0.1017   0.1986   0.2334   0.8028
     1.0591   1.8422   3.0320   4.2442   5.2620   5.8092   6.1414   6.9284
     7.4123   8.3508

          k =-0.5000 0.0000 0.0000 ( 11796 PWs)   bands (ev):

   -43.8973  -3.0120  -2.9562  -2.6992  -2.6464  -2.1959  -2.1402  -1.8825
    -1.7707  -1.5674  -1.5629  -1.5333  -1.4955  -1.4677  -1.4337  -1.2753
    -1.2617  -1.2393  -1.1017  -0.9564  -0.8049  -0.5443  -0.4947  -0.4332
    -0.2552  -0.0244   0.0580   0.0803   0.1887   0.2517   0.2779   2.3923
     2.6598   2.7665   2.7912   2.8594   3.4343   4.7839   5.1548   6.1123
     6.9120   7.7462

          k =-0.5000 0.1250 0.0000 ( 11862 PWs)   bands (ev):

   -43.8960  -2.8367  -2.7894  -2.5942  -2.5214  -2.2179  -2.0596  -1.9701
    -1.7869  -1.7208  -1.6500  -1.6444  -1.6276  -1.4765  -1.4613  -1.3510
    -1.2076  -1.1737  -1.1370  -0.8687  -0.7612  -0.6947  -0.6319  -0.3615
    -0.2526  -0.1906  -0.0803   0.0968   0.1941   0.2662   0.3287   2.7573
     2.9658   3.1189   3.2995   3.5024   4.0114   5.0530   5.4405   6.3389
     7.0956   7.9028

          k =-0.5000 0.2500 0.0000 ( 11818 PWs)   bands (ev):

   -43.8922  -2.6160  -2.6048  -2.5530  -2.5314  -2.4361  -2.3787  -2.3122
    -2.1997  -2.0478  -1.8813  -1.8417  -1.6392  -1.3655  -1.1478  -1.0344
    -1.0052  -0.8789  -0.8572  -0.7881  -0.6596  -0.6453  -0.6091  -0.3861
    -0.2298  -0.0164   0.0635   0.2379   0.3247   0.3259   0.3859   3.5112
     3.6423   4.0351   4.2711   4.8171   5.2745   5.9784   6.2488   7.0785
     7.6110   8.4784

          k =-0.5000 0.3750 0.0000 ( 11750 PWs)   bands (ev):

   -43.8884  -2.8943  -2.8595  -2.7976  -2.7903  -2.5950  -2.5472  -2.5203
    -2.5051  -2.2562  -2.0877  -1.9941  -1.9289  -1.3929  -1.2509  -0.9552
    -0.6127  -0.6065  -0.3396  -0.2447  -0.1264  -0.1036   0.0163   0.0275
     0.0855   0.2015   0.2941   0.3384   0.3916   0.3984   0.5480   4.4797
     4.5283   5.2234   5.3402   6.2361   6.4822   7.4127   7.5240   8.4794
     8.5306   9.5797

          k =-0.5000-0.5000 0.0000 ( 11668 PWs)   bands (ev):

   -43.8867  -3.0328  -2.9953  -2.8918  -2.8918  -2.7332  -2.6880  -2.5865
    -2.5865  -2.4290  -2.1360  -2.0299  -2.0299  -1.2934  -1.2934  -0.8940
    -0.4726  -0.4726  -0.2958  -0.1528  -0.0130   0.1839   0.2293   0.2502
     0.2502   0.2760   0.4774   0.4945   0.5541   0.5686   0.7733   5.1118
     5.1118   6.0266   6.0266   7.2596   7.2596   8.5847   8.5847   9.3001
     9.4703   9.9479

     the Fermi energy is     3.2193 ev

!    total energy              =    -520.57951247 Ry
     estimated scf accuracy    <       0.00000085 Ry
     smearing contrib. (-TS)   =      -0.00092000 Ry
     internal energy E=F+TS    =    -520.57859247 Ry

     The total energy is F=E-TS. E is the sum of the following terms:
     one-electron contribution =   -6289.67053263 Ry
     hartree contribution      =    3194.49869419 Ry
     xc contribution           =    -137.62106380 Ry
     ewald contribution        =    2712.40341664 Ry
     DFT-D3 Dispersion         =      -0.18910688 Ry

     convergence has been achieved in   8 iterations

     negative rho (up, down):  9.373E-06 0.000E+00

     Forces acting on atoms (cartesian axes, Ry/au):

     atom    1 type  2   force =    -0.00000034    0.00000051    0.00154337
     atom    2 type  2   force =     0.00000122   -0.00000017    0.00007812
     atom    3 type  2   force =     0.00000141    0.00000165   -0.00244844
     atom    4 type  2   force =    -0.00000064   -0.00000031    0.00099482
     atom    5 type  2   force =    -0.00000020   -0.00000206   -0.05632912
     atom    6 type  2   force =    -0.00000138    0.00000100   -0.00970665
     atom    7 type  1   force =    -0.00000006   -0.00000061    0.06586790
     The non-local contrib.  to forces
     atom    1 type  2   force =    -0.00000083   -0.00000043   -0.02674103
     atom    2 type  2   force =     0.00000132    0.00000033   -0.09029518
     atom    3 type  2   force =     0.00000076    0.00000193   -0.00311676
     atom    4 type  2   force =    -0.00000153    0.00000036    0.00034656
     atom    5 type  2   force =     0.00000071   -0.00000176    0.15237262
     atom    6 type  2   force =    -0.00000179    0.00000289    0.01873233
     atom    7 type  1   force =     0.00000008    0.00000038    0.05567788
     The ionic contribution  to forces
     atom    1 type  2   force =    -0.00000265   -0.00000792  -94.74993750
     atom    2 type  2   force =     0.00000047    0.00000480 -150.84238126
     atom    3 type  2   force =     0.00001139    0.00002037   21.57245503
     atom    4 type  2   force =    -0.00000020    0.00000363  -36.62791306
     atom    5 type  2   force =     0.00001227    0.00003041  136.30181035
     atom    6 type  2   force =    -0.00002248   -0.00005084   80.19666224
     atom    7 type  1   force =     0.00000121   -0.00000044   44.14930421
     The local contribution  to forces
     atom    1 type  2   force =     0.00000198    0.00000770   94.76996746
     atom    2 type  2   force =    -0.00000039   -0.00000494  150.91962575
     atom    3 type  2   force =    -0.00001126   -0.00001950  -21.56940127
     atom    4 type  2   force =     0.00000002   -0.00000514   36.62785659
     atom    5 type  2   force =    -0.00001272   -0.00003048 -136.51334654
     atom    6 type  2   force =     0.00002257    0.00004828  -80.22157812
     atom    7 type  1   force =    -0.00000139    0.00000078  -44.13790604
     The core correction contribution to forces
     atom    1 type  2   force =    -0.00000004    0.00000001    0.00005746
     atom    2 type  2   force =    -0.00000001   -0.00000007    0.00620304
     atom    3 type  2   force =    -0.00000003   -0.00000003    0.00050408
     atom    4 type  2   force =     0.00000001   -0.00000007   -0.00004388
     atom    5 type  2   force =    -0.00000004   -0.00000016    0.00697700
     atom    6 type  2   force =     0.00000008    0.00000008    0.00095798
     atom    7 type  1   force =     0.00000000    0.00000000    0.00000000
     The Hubbard contrib.    to forces
     atom    1 type  2   force =     0.00000000    0.00000000    0.00000000
     atom    2 type  2   force =     0.00000000    0.00000000    0.00000000
     atom    3 type  2   force =     0.00000000    0.00000000    0.00000000
     atom    4 type  2   force =     0.00000000    0.00000000    0.00000000
     atom    5 type  2   force =     0.00000000    0.00000000    0.00000000
     atom    6 type  2   force =     0.00000000    0.00000000    0.00000000
     atom    7 type  1   force =     0.00000000    0.00000000    0.00000000
     The SCF correction term to forces
     atom    1 type  2   force =     0.00000109    0.00000143    0.00310793
     atom    2 type  2   force =    -0.00000027    0.00000002    0.00278539
     atom    3 type  2   force =     0.00000048   -0.00000077   -0.00261845
     atom    4 type  2   force =     0.00000096    0.00000123   -0.00011605
     atom    5 type  2   force =    -0.00000049    0.00000030    0.00117212
     atom    6 type  2   force =     0.00000010    0.00000078   -0.00109658
     atom    7 type  1   force =    -0.00000006   -0.00000102    0.00044709

     DFT-D3 dispersion contribution to forces:
     atom    1 type  2   force =     0.00000001    0.00000002    0.00516496
     atom    2 type  2   force =    -0.00000000   -0.00000001    0.00421630
     atom    3 type  2   force =    -0.00000003   -0.00000005   -0.00019515
     atom    4 type  2   force =     0.00000000   -0.00000001    0.00094058
     atom    5 type  2   force =    -0.00000003   -0.00000007   -0.00523877
     atom    6 type  2   force =     0.00000005    0.00000011   -0.00330858
     atom    7 type  1   force =    -0.00000000   -0.00000000   -0.00157934

     Total force =     0.087265     Total SCF correction =     0.005202


     Computing stress (Cartesian axis) and pressure


     negative rho (up, down):  9.373E-06 0.000E+00
          total   stress  (Ry/bohr**3)                   (kbar)     P=       -7.62
  -0.00013078   0.00000000  -0.00000000          -19.24        0.00       -0.00
   0.00000000  -0.00013078   0.00000000            0.00      -19.24        0.00
  -0.00000000   0.00000000   0.00010624           -0.00        0.00       15.63

     Energy error            =      1.5E-02 Ry
     Gradient error          =      6.6E-02 Ry/Bohr

     number of scf cycles    =   2
     number of bfgs steps    =   1

     energy             old  =    -520.5643230897 Ry
     energy             new  =    -520.5795124747 Ry

     CASE: energy            _new < energy            _old

     new trust radius        =       0.1088250697 bohr
     new conv_thr            =       0.0000006587 Ry


ATOMIC_POSITIONS (angstrom)
Ag            2.1766645747        0.7255568486       12.0539202892
Ag            0.7255565763        2.1766628881        9.9997302319
Ag            2.1766637034        0.7255566354       16.1535172538
Ag            0.7255540354        2.1766636423       14.1059007228
Ag            2.1766604548        0.7255498052       20.1413402957
Ag            0.7255566055        2.1766753501       18.1772506958
Li            2.1766620918        0.7255503286       22.3507652817



     Writing config-only to output data dir ./Ag_mp-124_100_ontop_0/Ag_mp-124_100_ontop_0.save/
     NEW-OLD atomic charge density approx. for the potential

     negative rho (up, down):  1.221E-05 0.000E+00

     total cpu time spent up to now is       40.7 secs

     per-process dynamical memory:   188.8 Mb

     Self-consistent Calculation

     iteration #  1     ecut=    55.00 Ry     beta= 0.30
     Davidson diagonalization with overlap
     ethr =  1.00E-06,  avg # of iterations =  8.4

     negative rho (up, down):  1.092E-05 0.000E+00

     total cpu time spent up to now is       41.9 secs

     total energy              =    -520.58906282 Ry
     estimated scf accuracy    <       0.00090626 Ry

     iteration #  2     ecut=    55.00 Ry     beta= 0.30
     Davidson diagonalization with overlap
     ethr =  1.31E-06,  avg # of iterations =  2.1

     negative rho (up, down):  1.169E-05 0.000E+00

     total cpu time spent up to now is       42.3 secs

     total energy              =    -520.58898895 Ry
     estimated scf accuracy    <       0.00119971 Ry

     iteration #  3     ecut=    55.00 Ry     beta= 0.30
     Davidson diagonalization with overlap
     ethr =  1.31E-06,  avg # of iterations =  4.1

     negative rho (up, down):  1.345E-05 0.000E+00

     total cpu time spent up to now is       42.8 secs

     total energy              =    -520.58871311 Ry
     estimated scf accuracy    <       0.02021169 Ry

     iteration #  4     ecut=    55.00 Ry     beta= 0.30
     Davidson diagonalization with overlap
     ethr =  1.31E-06,  avg # of iterations =  2.0

     negative rho (up, down):  1.333E-05 0.000E+00

     total cpu time spent up to now is       43.1 secs

     total energy              =    -520.58915689 Ry
     estimated scf accuracy    <       0.00077139 Ry

     iteration #  5     ecut=    55.00 Ry     beta= 0.30
     Davidson diagonalization with overlap
     ethr =  1.12E-06,  avg # of iterations =  1.6

     negative rho (up, down):  1.372E-05 0.000E+00

     total cpu time spent up to now is       43.5 secs

     total energy              =    -520.58918291 Ry
     estimated scf accuracy    <       0.00054266 Ry

     iteration #  6     ecut=    55.00 Ry     beta= 0.30
     Davidson diagonalization with overlap
     ethr =  7.86E-07,  avg # of iterations =  1.1

     negative rho (up, down):  1.117E-05 0.000E+00

     total cpu time spent up to now is       43.9 secs

     total energy              =    -520.58921322 Ry
     estimated scf accuracy    <       0.00001966 Ry

     iteration #  7     ecut=    55.00 Ry     beta= 0.30
     Davidson diagonalization with overlap
     ethr =  2.85E-08,  avg # of iterations =  1.9

     negative rho (up, down):  9.520E-06 0.000E+00

     total cpu time spent up to now is       44.3 secs

     total energy              =    -520.58921499 Ry
     estimated scf accuracy    <       0.00000473 Ry

     iteration #  8     ecut=    55.00 Ry     beta= 0.30
     Davidson diagonalization with overlap
     ethr =  6.85E-09,  avg # of iterations =  2.1

     negative rho (up, down):  9.649E-06 0.000E+00

     total cpu time spent up to now is       44.8 secs

     total energy              =    -520.58921552 Ry
     estimated scf accuracy    <       0.00000093 Ry

     iteration #  9     ecut=    55.00 Ry     beta= 0.30
     Davidson diagonalization with overlap
     ethr =  1.35E-09,  avg # of iterations =  2.5

     negative rho (up, down):  9.433E-06 0.000E+00

     total cpu time spent up to now is       45.2 secs

     End of self-consistent calculation

          k = 0.0000 0.0000 0.0000 ( 11951 PWs)   bands (ev):

   -43.8983  -4.2813  -3.6652  -3.0752  -2.9592  -2.8808  -2.7703  -2.7440
    -2.4053  -2.4019  -2.0282  -1.7256  -1.5264  -1.4836  -1.4836  -1.2339
    -1.2339  -1.1606  -0.8299  -0.8299  -0.6564  -0.5289  -0.5207  -0.3658
    -0.3421  -0.3421  -0.1877  -0.0769   0.0206   0.1096   0.1096   0.1964
     0.2963   0.4294   0.4294   1.2426   2.4096   3.6037   4.6021   6.6565
     7.2640   7.7801

          k = 0.0000 0.1250 0.0000 ( 11903 PWs)   bands (ev):

   -43.8966  -3.9772  -3.4055  -2.9409  -2.7856  -2.7486  -2.6479  -2.5437
    -2.3415  -2.1665  -1.8880  -1.6525  -1.6245  -1.4335  -1.4133  -1.3233
    -1.2318  -1.1090  -1.0094  -0.9485  -0.7692  -0.6507  -0.5040  -0.4892
    -0.4256  -0.4051  -0.2996  -0.1699  -0.1172  -0.0097   0.0949   0.1552
     0.2994   0.4316   0.5206   1.7578   2.8234   4.0711   5.2382   6.9255
     7.5517   8.0388

          k = 0.0000 0.2500 0.0000 ( 11877 PWs)   bands (ev):

   -43.8929  -3.2433  -2.9750  -2.7174  -2.6771  -2.6060  -2.2952  -2.2725
    -2.0344  -1.7639  -1.5676  -1.4530  -1.3670  -1.3112  -1.2656  -1.2538
    -1.2006  -1.1601  -1.1381  -1.0069  -0.9638  -0.8641  -0.7201  -0.6831
    -0.6066  -0.5345  -0.3276  -0.2391  -0.2353  -0.0115   0.1138   0.1724
     0.3291   0.3532   1.3552   2.7102   3.7475   5.2025   6.6602   7.6416
     8.3366   8.5526

          k = 0.0000 0.3750 0.0000 ( 11873 PWs)   bands (ev):

   -43.8891  -2.9872  -2.9119  -2.7051  -2.6193  -2.3591  -2.1492  -1.9812
    -1.7501  -1.6440  -1.5182  -1.4661  -1.4588  -1.4227  -1.4162  -1.2476
    -1.2113  -1.1924  -1.1717  -0.8464  -0.8197  -0.7922  -0.6065  -0.4701
    -0.2677  -0.2410  -0.0424   0.0259   0.1026   0.2688   0.2947   0.5773
     0.7389   1.1659   2.4848   3.8088   4.8330   5.4616   5.8331   6.6358
     7.1681   8.1312

          k = 0.0000-0.5000 0.0000 ( 11796 PWs)   bands (ev):

   -43.8874  -3.0343  -2.9848  -2.7034  -2.6642  -2.1858  -2.1271  -1.8162
    -1.7456  -1.5801  -1.5793  -1.5407  -1.5273  -1.4968  -1.4432  -1.2703
    -1.2690  -1.2498  -1.1044  -0.9515  -0.8033  -0.5337  -0.4431  -0.4381
    -0.2499  -0.0171   0.0627   0.0782   0.1779   0.2472   0.2722   2.4494
     2.6529   2.7516   2.7794   2.8480   3.4248   4.7598   5.0192   6.1017
     6.9027   7.7342

          k = 0.1250-0.0000 0.0000 ( 11903 PWs)   bands (ev):

   -43.8966  -3.9772  -3.4055  -2.9409  -2.7856  -2.7486  -2.6479  -2.5437
    -2.3415  -2.1665  -1.8880  -1.6525  -1.6245  -1.4335  -1.4133  -1.3233
    -1.2318  -1.1090  -1.0094  -0.9485  -0.7692  -0.6507  -0.5040  -0.4892
    -0.4256  -0.4051  -0.2996  -0.1699  -0.1172  -0.0097   0.0949   0.1552
     0.2994   0.4316   0.5206   1.7578   2.8234   4.0711   5.2382   6.9255
     7.5517   8.0388

          k = 0.1250 0.1250 0.0000 ( 11887 PWs)   bands (ev):

   -43.8951  -3.6810  -3.1361  -2.7538  -2.6717  -2.5173  -2.4816  -2.3759
    -2.2108  -2.0351  -1.9209  -1.7362  -1.5895  -1.5565  -1.3260  -1.2844
    -1.2263  -1.1809  -1.1418  -0.9272  -0.8476  -0.7838  -0.6763  -0.6146
    -0.4916  -0.4277  -0.3704  -0.2302  -0.1943  -0.0262   0.0570   0.0890
     0.2210   0.4230   0.9995   2.1712   3.1771   4.5000   5.7674   7.1986
     7.8411   8.2987

          k = 0.1250 0.2500 0.0000 ( 11878 PWs)   bands (ev):

   -43.8913  -2.9948  -2.7141  -2.4931  -2.4520  -2.3909  -2.2336  -2.1148
    -1.9987  -1.8426  -1.6761  -1.6090  -1.5003  -1.4550  -1.3710  -1.2832
    -1.2323  -1.1798  -1.1304  -1.0845  -0.9936  -0.8954  -0.8242  -0.6351
    -0.4984  -0.4823  -0.4186  -0.2839  -0.2483  -0.0960   0.0330   0.1772
     0.3616   0.7486   1.8458   3.0570   4.0787   5.5705   7.0337   7.9380
     8.6258   8.8183

          k = 0.1250 0.3750 0.0000 ( 11868 PWs)   bands (ev):

   -43.8876  -2.7906  -2.7327  -2.5386  -2.4756  -2.1736  -2.1116  -2.0823
    -1.9167  -1.7038  -1.6651  -1.6163  -1.4753  -1.4503  -1.4390  -1.3021
    -1.1788  -1.1388  -1.1178  -0.9570  -0.8991  -0.7107  -0.6956  -0.5287
    -0.4196  -0.2464  -0.1247   0.0192   0.0972   0.1931   0.2228   0.8019
     1.0628   1.8540   3.0283   4.1991   5.2331   5.7970   6.1466   6.9147
     7.3769   8.3283

          k = 0.1250-0.5000 0.0000 ( 11862 PWs)   bands (ev):

   -43.8861  -2.8524  -2.8212  -2.5942  -2.5415  -2.2116  -2.0745  -1.9419
    -1.8076  -1.7282  -1.6599  -1.6421  -1.6283  -1.4746  -1.4530  -1.3552
    -1.2137  -1.1720  -1.1344  -0.8604  -0.7165  -0.6953  -0.6263  -0.3400
    -0.2489  -0.1898  -0.0879   0.0974   0.1854   0.2614   0.3198   2.7964
     2.9578   3.1198   3.2942   3.4981   4.0021   5.0338   5.3149   6.3274
     7.0837   7.8880

          k = 0.1250-0.3750 0.0000 ( 11868 PWs)   bands (ev):

   -43.8876  -2.7906  -2.7327  -2.5386  -2.4756  -2.1736  -2.1116  -2.0823
    -1.9167  -1.7038  -1.6651  -1.6163  -1.4753  -1.4503  -1.4390  -1.3021
    -1.1788  -1.1388  -1.1178  -0.9570  -0.8991  -0.7107  -0.6956  -0.5287
    -0.4196  -0.2464  -0.1247   0.0192   0.0972   0.1931   0.2228   0.8019
     1.0628   1.8540   3.0283   4.1991   5.2331   5.7970   6.1466   6.9147
     7.3769   8.3283

          k = 0.1250-0.2500 0.0000 ( 11878 PWs)   bands (ev):

   -43.8913  -2.9948  -2.7141  -2.4931  -2.4520  -2.3909  -2.2336  -2.1148
    -1.9987  -1.8426  -1.6761  -1.6090  -1.5003  -1.4550  -1.3710  -1.2832
    -1.2323  -1.1798  -1.1304  -1.0845  -0.9936  -0.8954  -0.8242  -0.6351
    -0.4984  -0.4823  -0.4186  -0.2839  -0.2483  -0.0960   0.0330   0.1772
     0.3616   0.7486   1.8458   3.0570   4.0787   5.5705   7.0337   7.9380
     8.6258   8.8183

          k = 0.1250-0.1250 0.0000 ( 11887 PWs)   bands (ev):

   -43.8951  -3.6810  -3.1361  -2.7538  -2.6717  -2.5173  -2.4816  -2.3759
    -2.2108  -2.0351  -1.9209  -1.7362  -1.5895  -1.5565  -1.3260  -1.2844
    -1.2263  -1.1809  -1.1418  -0.9272  -0.8476  -0.7838  -0.6763  -0.6146
    -0.4916  -0.4277  -0.3704  -0.2302  -0.1943  -0.0262   0.0570   0.0890
     0.2210   0.4230   0.9995   2.1712   3.1771   4.5000   5.7674   7.1986
     7.8411   8.2987

          k = 0.2500-0.0000 0.0000 ( 11877 PWs)   bands (ev):

   -43.8929  -3.2433  -2.9750  -2.7174  -2.6771  -2.6060  -2.2952  -2.2725
    -2.0344  -1.7639  -1.5676  -1.4530  -1.3670  -1.3112  -1.2656  -1.2538
    -1.2006  -1.1601  -1.1381  -1.0069  -0.9638  -0.8641  -0.7201  -0.6831
    -0.6066  -0.5345  -0.3276  -0.2391  -0.2353  -0.0115   0.1138   0.1724
     0.3291   0.3532   1.3552   2.7102   3.7475   5.2025   6.6602   7.6416
     8.3366   8.5525

          k = 0.2500 0.1250 0.0000 ( 11878 PWs)   bands (ev):

   -43.8913  -2.9948  -2.7141  -2.4931  -2.4521  -2.3909  -2.2336  -2.1148
    -1.9987  -1.8426  -1.6761  -1.6090  -1.5003  -1.4550  -1.3710  -1.2832
    -1.2323  -1.1798  -1.1304  -1.0845  -0.9936  -0.8954  -0.8242  -0.6351
    -0.4984  -0.4823  -0.4186  -0.2839  -0.2483  -0.0960   0.0330   0.1772
     0.3616   0.7486   1.8458   3.0570   4.0787   5.5705   7.0337   7.9380
     8.6258   8.8197

          k = 0.2500 0.2500 0.0000 ( 11857 PWs)   bands (ev):

   -43.8876  -2.5819  -2.3500  -2.3067  -2.2274  -2.1114  -2.1015  -2.0584
    -1.9082  -1.8887  -1.7942  -1.7628  -1.7196  -1.6906  -1.5272  -1.3488
    -1.3129  -1.2258  -0.9891  -0.8190  -0.8155  -0.6841  -0.6150  -0.5678
    -0.5376  -0.4700  -0.3961  -0.3244  -0.2700  -0.0452   0.0684   0.4113
     0.6761   1.6485   2.8156   3.9054   4.9788   6.5358   8.0187   8.7492
     8.8164   9.5653

          k = 0.2500 0.3750 0.0000 ( 11826 PWs)   bands (ev):

   -43.8838  -2.5742  -2.5290  -2.4833  -2.4070  -2.3305  -2.3051  -2.2386
    -2.1313  -1.9877  -1.7965  -1.7883  -1.6151  -1.3878  -1.2688  -1.2308
    -1.1271  -1.0447  -0.8210  -0.7377  -0.6705  -0.6160  -0.5908  -0.4617
    -0.4187  -0.1889  -0.0606   0.1035   0.1403   0.1721   0.3542   1.2607
     1.9753   3.0064   4.1381   5.1474   6.2638   6.4969   6.9579   7.7398
     7.9863   8.9428

          k = 0.2500-0.5000 0.0000 ( 11818 PWs)   bands (ev):

   -43.8823  -2.6533  -2.6028  -2.5794  -2.5573  -2.4343  -2.3950  -2.3211
    -2.2150  -2.0516  -1.8781  -1.8497  -1.6475  -1.3048  -1.0902  -1.0484
    -0.9978  -0.8940  -0.8455  -0.7862  -0.6511  -0.6407  -0.6025  -0.3743
    -0.2279  -0.0078   0.0571   0.2457   0.3138   0.3164   0.3754   3.5300
     3.6359   4.0533   4.2726   4.8145   5.2722   5.9645   6.1587   7.0602
     7.5871   8.4568

          k = 0.2500-0.3750 0.0000 ( 11826 PWs)   bands (ev):

   -43.8838  -2.5742  -2.5290  -2.4833  -2.4070  -2.3305  -2.3051  -2.2386
    -2.1313  -1.9877  -1.7965  -1.7883  -1.6151  -1.3878  -1.2688  -1.2308
    -1.1271  -1.0447  -0.8210  -0.7377  -0.6705  -0.6160  -0.5908  -0.4617
    -0.4187  -0.1889  -0.0606   0.1035   0.1403   0.1721   0.3542   1.2607
     1.9753   3.0064   4.1381   5.1474   6.2638   6.4969   6.9579   7.7398
     7.9863   8.9427

          k = 0.2500-0.2500 0.0000 ( 11857 PWs)   bands (ev):

   -43.8876  -2.5819  -2.3500  -2.3067  -2.2274  -2.1114  -2.1015  -2.0584
    -1.9082  -1.8887  -1.7942  -1.7628  -1.7196  -1.6906  -1.5272  -1.3488
    -1.3129  -1.2258  -0.9891  -0.8190  -0.8155  -0.6841  -0.6150  -0.5678
    -0.5376  -0.4700  -0.3961  -0.3244  -0.2700  -0.0452   0.0684   0.4113
     0.6761   1.6485   2.8156   3.9054   4.9788   6.5358   8.0187   8.7492
     8.8164   9.5653

          k = 0.2500-0.1250 0.0000 ( 11878 PWs)   bands (ev):

   -43.8913  -2.9948  -2.7141  -2.4931  -2.4521  -2.3909  -2.2336  -2.1148
    -1.9987  -1.8426  -1.6761  -1.6090  -1.5003  -1.4550  -1.3710  -1.2832
    -1.2323  -1.1798  -1.1304  -1.0845  -0.9936  -0.8954  -0.8242  -0.6351
    -0.4984  -0.4823  -0.4186  -0.2839  -0.2483  -0.0960   0.0330   0.1772
     0.3616   0.7486   1.8458   3.0570   4.0787   5.5705   7.0337   7.9380
     8.6258   8.8197

          k = 0.3750-0.0000 0.0000 ( 11873 PWs)   bands (ev):

   -43.8891  -2.9872  -2.9119  -2.7051  -2.6193  -2.3591  -2.1492  -1.9812
    -1.7501  -1.6440  -1.5182  -1.4661  -1.4588  -1.4227  -1.4162  -1.2476
    -1.2113  -1.1924  -1.1717  -0.8464  -0.8197  -0.7922  -0.6065  -0.4701
    -0.2677  -0.2410  -0.0424   0.0259   0.1026   0.2688   0.2947   0.5773
     0.7389   1.1659   2.4848   3.8088   4.8330   5.4616   5.8331   6.6358
     7.1681   8.1312

          k = 0.3750 0.1250 0.0000 ( 11868 PWs)   bands (ev):

   -43.8876  -2.7906  -2.7327  -2.5386  -2.4756  -2.1736  -2.1116  -2.0823
    -1.9167  -1.7038  -1.6651  -1.6163  -1.4753  -1.4503  -1.4390  -1.3021
    -1.1788  -1.1388  -1.1178  -0.9570  -0.8991  -0.7107  -0.6956  -0.5286
    -0.4196  -0.2464  -0.1247   0.0192   0.0972   0.1931   0.2228   0.8019
     1.0628   1.8540   3.0283   4.1991   5.2331   5.7970   6.1466   6.9147
     7.3769   8.3283

          k = 0.3750 0.2500 0.0000 ( 11826 PWs)   bands (ev):

   -43.8838  -2.5742  -2.5290  -2.4833  -2.4070  -2.3305  -2.3051  -2.2386
    -2.1313  -1.9877  -1.7965  -1.7883  -1.6151  -1.3878  -1.2688  -1.2308
    -1.1271  -1.0447  -0.8210  -0.7377  -0.6705  -0.6160  -0.5908  -0.4617
    -0.4187  -0.1889  -0.0606   0.1035   0.1403   0.1721   0.3542   1.2607
     1.9753   3.0064   4.1381   5.1474   6.2638   6.4969   6.9579   7.7398
     7.9863   8.9427

          k = 0.3750 0.3750 0.0000 ( 11799 PWs)   bands (ev):

   -43.8802  -2.8144  -2.7584  -2.7358  -2.6847  -2.4881  -2.4458  -2.4457
    -2.4049  -2.1024  -1.9739  -1.9468  -1.8728  -1.4256  -1.3245  -0.9317
    -0.7503  -0.7196  -0.4244  -0.3489  -0.2976  -0.2372  -0.0896  -0.0794
     0.0189   0.0719   0.1223   0.1552   0.1598   0.2720   0.4343   2.4670
     3.3413   4.4619   5.5436   6.4208   6.5327   7.1340   7.7283   8.1581
     9.2013   9.4407

          k = 0.3750-0.5000 0.0000 ( 11750 PWs)   bands (ev):

   -43.8785  -2.9318  -2.8793  -2.8237  -2.8130  -2.5987  -2.5661  -2.5251
    -2.5166  -2.2500  -2.0801  -2.0020  -1.9307  -1.3639  -1.2432  -0.8532
    -0.5971  -0.5943  -0.3417  -0.2504  -0.1330  -0.0743   0.0085   0.0257
     0.0804   0.2141   0.2804   0.3432   0.3775   0.3861   0.5384   4.4905
     4.5274   5.2495   5.3562   6.2276   6.4888   7.3577   7.4900   8.4354
     8.5056   9.5424

          k = 0.3750-0.3750 0.0000 ( 11799 PWs)   bands (ev):

   -43.8802  -2.8144  -2.7584  -2.7358  -2.6847  -2.4881  -2.4458  -2.4457
    -2.4049  -2.1024  -1.9739  -1.9468  -1.8728  -1.4256  -1.3245  -0.9317
    -0.7503  -0.7196  -0.4244  -0.3489  -0.2976  -0.2372  -0.0896  -0.0794
     0.0189   0.0719   0.1223   0.1552   0.1598   0.2720   0.4343   2.4670
     3.3413   4.4619   5.5436   6.4208   6.5327   7.1340   7.7283   8.1581
     9.2014   9.4407

          k = 0.3750-0.2500 0.0000 ( 11826 PWs)   bands (ev):

   -43.8838  -2.5742  -2.5290  -2.4833  -2.4070  -2.3305  -2.3051  -2.2386
    -2.1313  -1.9877  -1.7965  -1.7883  -1.6151  -1.3878  -1.2688  -1.2308
    -1.1271  -1.0447  -0.8210  -0.7377  -0.6705  -0.6160  -0.5908  -0.4617
    -0.4187  -0.1889  -0.0606   0.1035   0.1403   0.1721   0.3542   1.2607
     1.9753   3.0064   4.1381   5.1474   6.2638   6.4969   6.9579   7.7398
     7.9862   8.9428

          k = 0.3750-0.1250 0.0000 ( 11868 PWs)   bands (ev):

   -43.8876  -2.7906  -2.7327  -2.5386  -2.4756  -2.1736  -2.1116  -2.0823
    -1.9167  -1.7038  -1.6651  -1.6163  -1.4753  -1.4503  -1.4390  -1.3021
    -1.1788  -1.1388  -1.1178  -0.9570  -0.8991  -0.7107  -0.6956  -0.5286
    -0.4196  -0.2464  -0.1247   0.0192   0.0972   0.1931   0.2228   0.8019
     1.0628   1.8540   3.0283   4.1991   5.2331   5.7970   6.1466   6.9147
     7.3769   8.3283

          k =-0.5000 0.0000 0.0000 ( 11796 PWs)   bands (ev):

   -43.8874  -3.0343  -2.9848  -2.7034  -2.6642  -2.1858  -2.1271  -1.8162
    -1.7456  -1.5801  -1.5793  -1.5407  -1.5273  -1.4968  -1.4432  -1.2703
    -1.2690  -1.2498  -1.1044  -0.9515  -0.8033  -0.5337  -0.4431  -0.4381
    -0.2499  -0.0171   0.0627   0.0782   0.1779   0.2472   0.2722   2.4494
     2.6529   2.7516   2.7794   2.8480   3.4248   4.7598   5.0192   6.1017
     6.9027   7.7342

          k =-0.5000 0.1250 0.0000 ( 11862 PWs)   bands (ev):

   -43.8861  -2.8524  -2.8212  -2.5942  -2.5415  -2.2116  -2.0745  -1.9419
    -1.8076  -1.7282  -1.6599  -1.6421  -1.6284  -1.4746  -1.4530  -1.3552
    -1.2137  -1.1720  -1.1344  -0.8604  -0.7165  -0.6953  -0.6263  -0.3400
    -0.2489  -0.1898  -0.0879   0.0974   0.1854   0.2614   0.3198   2.7964
     2.9578   3.1198   3.2942   3.4981   4.0021   5.0338   5.3149   6.3274
     7.0837   7.8880

          k =-0.5000 0.2500 0.0000 ( 11818 PWs)   bands (ev):

   -43.8823  -2.6533  -2.6028  -2.5794  -2.5573  -2.4343  -2.3950  -2.3211
    -2.2150  -2.0516  -1.8781  -1.8497  -1.6475  -1.3048  -1.0902  -1.0484
    -0.9978  -0.8940  -0.8455  -0.7862  -0.6511  -0.6407  -0.6025  -0.3743
[...]

          k = 0.1250-0.2500 0.0000 ( 11878 PWs)   bands (ev):

   -43.9557  -2.9507  -2.6592  -2.4443  -2.4359  -2.1977  -2.1509  -2.0974
    -1.9360  -1.7933  -1.6152  -1.5493  -1.4291  -1.3420  -1.2842  -1.2077
    -1.1844  -1.1532  -1.0605  -1.0173  -0.9089  -0.8787  -0.8166  -0.5892
    -0.4615  -0.4540  -0.3941  -0.2666  -0.2407  -0.0803   0.0578   0.1851
     0.3596   0.7636   1.8240   2.9433   3.9751   5.4193   6.8886   7.8834
     8.6454   8.8421

          k = 0.1250-0.1250 0.0000 ( 11887 PWs)   bands (ev):

   -43.9594  -3.6468  -3.0538  -2.6983  -2.6079  -2.4790  -2.4186  -2.2096
    -2.1478  -2.0273  -1.8853  -1.7500  -1.4273  -1.3588  -1.3458  -1.2799
    -1.2378  -1.1355  -1.0149  -0.8179  -0.7865  -0.7302  -0.6703  -0.6141
    -0.4741  -0.3568  -0.3287  -0.2216  -0.1368  -0.0130   0.0384   0.1034
     0.2280   0.4232   0.9895   2.0871   3.0788   4.3429   5.6534   7.1467
     7.8311   8.2593

          k = 0.2500-0.0000 0.0000 ( 11877 PWs)   bands (ev):

   -43.9572  -3.2013  -2.9233  -2.6887  -2.6511  -2.3772  -2.3154  -2.1901
    -1.9436  -1.6613  -1.5104  -1.4147  -1.2683  -1.2587  -1.2324  -1.2280
    -1.1709  -1.0636  -1.0619  -0.9591  -0.8852  -0.8578  -0.7346  -0.5973
    -0.5593  -0.4636  -0.2822  -0.2479  -0.2110  -0.0004   0.1407   0.1841
     0.3313   0.3426   1.3477   2.6060   3.6397   5.0516   6.5232   7.5861
     8.3522   8.5812

          k = 0.2500 0.1250 0.0000 ( 11878 PWs)   bands (ev):

   -43.9557  -2.9507  -2.6592  -2.4443  -2.4359  -2.1977  -2.1509  -2.0974
    -1.9360  -1.7933  -1.6152  -1.5493  -1.4291  -1.3420  -1.2842  -1.2077
    -1.1844  -1.1532  -1.0605  -1.0173  -0.9089  -0.8787  -0.8166  -0.5892
    -0.4615  -0.4540  -0.3941  -0.2666  -0.2407  -0.0803   0.0578   0.1851
     0.3596   0.7636   1.8240   2.9433   3.9751   5.4193   6.8886   7.8834
     8.6454   8.8421

          k = 0.2500 0.2500 0.0000 ( 11857 PWs)   bands (ev):

   -43.9520  -2.5365  -2.2832  -2.2146  -2.1399  -2.0658  -2.0183  -1.9579
    -1.8963  -1.8183  -1.7614  -1.7599  -1.7478  -1.5607  -1.3644  -1.3149
    -1.1852  -1.0438  -0.8462  -0.8356  -0.7704  -0.6733  -0.6080  -0.5578
    -0.5127  -0.4512  -0.4146  -0.3072  -0.2700   0.0070   0.0745   0.4123
     0.7213   1.6585   2.7710   3.7750   4.8784   6.3852   7.8534   8.7540
     8.9391   9.5491

          k = 0.2500 0.3750 0.0000 ( 11826 PWs)   bands (ev):

   -43.9483  -2.5049  -2.4817  -2.4230  -2.3606  -2.2789  -2.2438  -2.1201
    -2.0471  -1.8801  -1.7840  -1.6932  -1.5843  -1.2788  -1.2316  -1.2090
    -0.9884  -0.9211  -0.7488  -0.7131  -0.6638  -0.5909  -0.5557  -0.4331
    -0.3594  -0.2102  -0.0176   0.0989   0.1401   0.1736   0.3552   1.3188
     2.0466   3.0209   4.0694   5.0102   6.1788   6.5696   7.0251   7.6835
     7.8458   8.8605

          k = 0.2500-0.5000 0.0000 ( 11818 PWs)   bands (ev):

   -43.9468  -2.5579  -2.5470  -2.5438  -2.5368  -2.3566  -2.3467  -2.1851
    -2.1408  -1.9369  -1.8574  -1.7382  -1.6652  -1.1114  -1.0443  -0.9747
    -0.9025  -0.8876  -0.7771  -0.7728  -0.6597  -0.6056  -0.5793  -0.3036
    -0.1903   0.0225   0.0807   0.2723   0.3022   0.3187   0.3610   3.6421
     3.6831   4.1349   4.3380   4.7893   5.2713   5.9125   5.9290   7.0218
     7.4857   8.4006

          k = 0.2500-0.3750 0.0000 ( 11826 PWs)   bands (ev):

   -43.9483  -2.5049  -2.4817  -2.4230  -2.3606  -2.2789  -2.2438  -2.1201
    -2.0471  -1.8801  -1.7840  -1.6932  -1.5843  -1.2788  -1.2316  -1.2090
    -0.9884  -0.9211  -0.7488  -0.7131  -0.6638  -0.5909  -0.5557  -0.4331
    -0.3594  -0.2102  -0.0176   0.0989   0.1401   0.1736   0.3552   1.3188
     2.0466   3.0209   4.0694   5.0102   6.1788   6.5696   7.0251   7.6835
     7.8458   8.8605

          k = 0.2500-0.2500 0.0000 ( 11857 PWs)   bands (ev):

   -43.9520  -2.5365  -2.2832  -2.2146  -2.1399  -2.0658  -2.0183  -1.9579
    -1.8963  -1.8183  -1.7614  -1.7599  -1.7478  -1.5607  -1.3644  -1.3149
    -1.1852  -1.0438  -0.8462  -0.8356  -0.7704  -0.6733  -0.6080  -0.5578
    -0.5127  -0.4512  -0.4146  -0.3072  -0.2700   0.0070   0.0745   0.4123
     0.7213   1.6585   2.7710   3.7750   4.8784   6.3852   7.8534   8.7540
     8.9391   9.5491

          k = 0.2500-0.1250 0.0000 ( 11878 PWs)   bands (ev):

   -43.9557  -2.9507  -2.6592  -2.4443  -2.4359  -2.1977  -2.1509  -2.0974
    -1.9360  -1.7933  -1.6152  -1.5493  -1.4291  -1.3420  -1.2842  -1.2077
    -1.1844  -1.1532  -1.0605  -1.0173  -0.9089  -0.8787  -0.8166  -0.5892
    -0.4615  -0.4540  -0.3941  -0.2666  -0.2407  -0.0803   0.0578   0.1851
     0.3596   0.7636   1.8240   2.9433   3.9751   5.4193   6.8886   7.8834
     8.6454   8.8421

          k = 0.3750-0.0000 0.0000 ( 11873 PWs)   bands (ev):

   -43.9535  -2.9073  -2.8920  -2.6346  -2.5566  -2.2355  -2.1301  -1.8184
    -1.7091  -1.6167  -1.4582  -1.4295  -1.3911  -1.3770  -1.3669  -1.2046
    -1.1667  -1.1251  -1.0983  -0.7858  -0.7605  -0.7298  -0.5545  -0.4282
    -0.2184  -0.1998  -0.0256   0.0419   0.0947   0.2681   0.2883   0.6578
     0.7278   1.2284   2.4828   3.6826   4.7081   5.4425   5.9177   6.6063
     7.0259   8.0746

          k = 0.3750 0.1250 0.0000 ( 11868 PWs)   bands (ev):

   -43.9520  -2.7098  -2.7062  -2.4655  -2.4133  -2.1008  -2.0332  -1.9911
    -1.8510  -1.6267  -1.5927  -1.5457  -1.4607  -1.4034  -1.3044  -1.2811
    -1.1520  -1.0878  -1.0500  -0.8939  -0.8734  -0.6761  -0.6458  -0.4846
    -0.3399  -0.1900  -0.1363   0.0478   0.0950   0.1949   0.2117   0.8413
     1.1163   1.8891   3.0016   4.0620   5.1219   5.8055   6.2231   6.8780
     7.2413   8.2657

          k = 0.3750 0.2500 0.0000 ( 11826 PWs)   bands (ev):

   -43.9483  -2.5049  -2.4817  -2.4230  -2.3606  -2.2789  -2.2438  -2.1201
    -2.0471  -1.8801  -1.7840  -1.6932  -1.5843  -1.2788  -1.2316  -1.2090
    -0.9884  -0.9211  -0.7488  -0.7131  -0.6638  -0.5909  -0.5557  -0.4331
    -0.3594  -0.2102  -0.0176   0.0989   0.1401   0.1736   0.3552   1.3188
     2.0466   3.0209   4.0694   5.0102   6.1788   6.5696   7.0251   7.6835
     7.8458   8.8605

          k = 0.3750 0.3750 0.0000 ( 11799 PWs)   bands (ev):

   -43.9447  -2.7550  -2.7201  -2.6777  -2.6377  -2.4275  -2.3660  -2.3537
    -2.3106  -1.9714  -1.8953  -1.8918  -1.8607  -1.3602  -1.2671  -0.8183
    -0.7015  -0.5790  -0.3503  -0.2983  -0.2330  -0.2086  -0.1141  -0.0877
     0.0284   0.1180   0.1338   0.1455   0.1626   0.2728   0.4341   2.5389
     3.4298   4.4645   5.4384   6.4041   6.5730   7.2106   7.6324   8.0642
     9.0724   9.3218

          k = 0.3750-0.5000 0.0000 ( 11750 PWs)   bands (ev):

   -43.9430  -2.8664  -2.8502  -2.7665  -2.7654  -2.5279  -2.5054  -2.4298
    -2.4258  -2.1060  -2.0205  -1.9508  -1.8981  -1.2580  -1.2151  -0.6575
    -0.5700  -0.4958  -0.3503  -0.2457  -0.1236  -0.0092   0.0359   0.0598
     0.0880   0.2523   0.3024   0.3641   0.3843   0.3937   0.5184   4.5945
     4.6087   5.3587   5.4559   6.1676   6.4737   7.2211   7.3901   8.3127
     8.4159   9.4617

          k = 0.3750-0.3750 0.0000 ( 11799 PWs)   bands (ev):

   -43.9447  -2.7550  -2.7201  -2.6777  -2.6377  -2.4275  -2.3660  -2.3537
    -2.3106  -1.9714  -1.8953  -1.8918  -1.8607  -1.3602  -1.2671  -0.8183
    -0.7015  -0.5790  -0.3503  -0.2983  -0.2330  -0.2086  -0.1141  -0.0877
     0.0284   0.1180   0.1338   0.1455   0.1626   0.2728   0.4341   2.5389
     3.4298   4.4645   5.4384   6.4041   6.5730   7.2106   7.6324   8.0642
     9.0724   9.3218

          k = 0.3750-0.2500 0.0000 ( 11826 PWs)   bands (ev):

   -43.9483  -2.5049  -2.4817  -2.4230  -2.3606  -2.2789  -2.2438  -2.1201
    -2.0471  -1.8801  -1.7840  -1.6932  -1.5843  -1.2788  -1.2316  -1.2090
    -0.9884  -0.9211  -0.7488  -0.7131  -0.6638  -0.5909  -0.5557  -0.4331
    -0.3594  -0.2102  -0.0176   0.0989   0.1401   0.1736   0.3552   1.3188
     2.0466   3.0209   4.0694   5.0102   6.1788   6.5696   7.0251   7.6835
     7.8458   8.8605

          k = 0.3750-0.1250 0.0000 ( 11868 PWs)   bands (ev):

   -43.9520  -2.7098  -2.7062  -2.4655  -2.4133  -2.1008  -2.0332  -1.9911
    -1.8510  -1.6267  -1.5927  -1.5457  -1.4607  -1.4034  -1.3044  -1.2811
    -1.1520  -1.0878  -1.0500  -0.8939  -0.8734  -0.6761  -0.6458  -0.4846
    -0.3399  -0.1900  -0.1363   0.0478   0.0950   0.1949   0.2117   0.8413
     1.1163   1.8891   3.0016   4.0620   5.1219   5.8055   6.2231   6.8780
     7.2413   8.2657

          k =-0.5000 0.0000 0.0000 ( 11796 PWs)   bands (ev):

   -43.9518  -2.9608  -2.9586  -2.6068  -2.5916  -2.0814  -2.0757  -1.6855
    -1.6534  -1.5994  -1.5563  -1.5337  -1.4602  -1.4494  -1.4411  -1.1889
    -1.1757  -1.1394  -1.0727  -0.8514  -0.7922  -0.4671  -0.3825  -0.3273
    -0.2532  -0.0052   0.0569   0.0988   0.1812   0.2467   0.2658   2.6922
     2.7167   2.7561   2.7983   2.8351   3.3984   4.6942   4.7617   6.0812
     6.8469   7.6958

          k =-0.5000 0.1250 0.0000 ( 11862 PWs)   bands (ev):

   -43.9505  -2.7869  -2.7817  -2.5014  -2.4783  -2.1008  -2.0358  -1.7886
    -1.7802  -1.7041  -1.6724  -1.5131  -1.5013  -1.4428  -1.4258  -1.2895
    -1.2037  -1.1150  -1.0887  -0.7584  -0.6871  -0.6201  -0.6070  -0.2839
    -0.2013  -0.1684  -0.0778   0.1276   0.1930   0.2580   0.3061   2.9551
     2.9948   3.1667   3.3413   3.5037   3.9837   5.0097   5.0200   6.3062
     7.0176   7.8458

          k =-0.5000 0.2500 0.0000 ( 11818 PWs)   bands (ev):

   -43.9468  -2.5579  -2.5470  -2.5438  -2.5368  -2.3566  -2.3467  -2.1851
    -2.1408  -1.9369  -1.8574  -1.7382  -1.6652  -1.1114  -1.0443  -0.9747
    -0.9025  -0.8876  -0.7771  -0.7728  -0.6597  -0.6056  -0.5793  -0.3036
    -0.1903   0.0225   0.0807   0.2723   0.3022   0.3187   0.3610   3.6421
     3.6831   4.1349   4.3380   4.7893   5.2713   5.9125   5.9290   7.0218
     7.4857   8.4006

          k =-0.5000 0.3750 0.0000 ( 11750 PWs)   bands (ev):

   -43.9430  -2.8664  -2.8502  -2.7665  -2.7654  -2.5279  -2.5054  -2.4298
    -2.4258  -2.1060  -2.0205  -1.9508  -1.8981  -1.2580  -1.2151  -0.6575
    -0.5700  -0.4958  -0.3503  -0.2457  -0.1236  -0.0092   0.0359   0.0598
     0.0880   0.2523   0.3024   0.3641   0.3843   0.3937   0.5184   4.5945
     4.6087   5.3587   5.4559   6.1676   6.4737   7.2211   7.3901   8.3127
     8.4159   9.4617

          k =-0.5000-0.5000 0.0000 ( 11668 PWs)   bands (ev):

   -43.9413  -3.0075  -2.9904  -2.8621  -2.8621  -2.6744  -2.6502  -2.4996
    -2.4996  -2.2626  -2.1721  -1.9341  -1.9341  -1.2128  -1.2128  -0.5297
    -0.4288  -0.4288  -0.3091  -0.1462  -0.0162   0.1727   0.2130   0.2638
     0.2638   0.4622   0.5151   0.5187   0.5312   0.5630   0.7371   5.2336
     5.2336   6.1992   6.1992   7.1872   7.1872   8.3649   8.3649   9.1832
     9.4560   9.9330

     the Fermi energy is     3.2128 ev

!    total energy              =    -520.60071326 Ry
     estimated scf accuracy    <          1.7E-09 Ry
     smearing contrib. (-TS)   =       0.00046886 Ry
     internal energy E=F+TS    =    -520.60118212 Ry

     The total energy is F=E-TS. E is the sum of the following terms:
     one-electron contribution =   -6210.10938288 Ry
     hartree contribution      =    3154.78269337 Ry
     xc contribution           =    -137.55419920 Ry
     ewald contribution        =    2672.46732527 Ry
     DFT-D3 Dispersion         =      -0.18761869 Ry

     convergence has been achieved in   9 iterations

     negative rho (up, down):  9.430E-06 0.000E+00

     Forces acting on atoms (cartesian axes, Ry/au):

     atom    1 type  2   force =     0.00000005   -0.00000015    0.00079184
     atom    2 type  2   force =    -0.00000025    0.00000000   -0.00067444
     atom    3 type  2   force =    -0.00000005    0.00000034    0.00015413
     atom    4 type  2   force =    -0.00000007    0.00000001   -0.00007502
     atom    5 type  2   force =     0.00000007    0.00000009   -0.00081381
     atom    6 type  2   force =     0.00000008   -0.00000012   -0.00017694
     atom    7 type  1   force =     0.00000016   -0.00000018    0.00079425
     The non-local contrib.  to forces
     atom    1 type  2   force =    -0.00000000   -0.00000022   -0.02816268
     atom    2 type  2   force =    -0.00000016   -0.00000001   -0.09257984
     atom    3 type  2   force =    -0.00000002    0.00000026    0.00164839
     atom    4 type  2   force =    -0.00000008    0.00000008   -0.00003286
     atom    5 type  2   force =     0.00000039   -0.00000047    0.06503880
     atom    6 type  2   force =     0.00000012   -0.00000012    0.01513992
     atom    7 type  1   force =     0.00000012   -0.00000016    0.03322866
     The ionic contribution  to forces
     atom    1 type  2   force =     0.00000060   -0.00000198  -94.39312307
     atom    2 type  2   force =    -0.00000029    0.00000005 -150.59030756
     atom    3 type  2   force =    -0.00000163    0.00001068   22.42270048
     atom    4 type  2   force =    -0.00000292    0.00000055  -36.06452420
     atom    5 type  2   force =     0.00000173    0.00000024  136.52330918
     atom    6 type  2   force =    -0.00000078   -0.00000494   80.84503906
     atom    7 type  1   force =     0.00000330   -0.00000462   41.25690611
     The local contribution  to forces
     atom    1 type  2   force =    -0.00000059    0.00000190   94.41668742
     atom    2 type  2   force =     0.00000018   -0.00000010  150.67172136
     atom    3 type  2   force =     0.00000157   -0.00001047  -22.42371631
     atom    4 type  2   force =     0.00000292   -0.00000054   36.06331421
     atom    5 type  2   force =    -0.00000213    0.00000032 -136.58469906
     atom    6 type  2   force =     0.00000072    0.00000491  -80.85565082
     atom    7 type  1   force =    -0.00000329    0.00000456  -41.28739405
     The core correction contribution to forces
     atom    1 type  2   force =    -0.00000000    0.00000000    0.00009639
     atom    2 type  2   force =    -0.00000000   -0.00000000    0.00629175
     atom    3 type  2   force =     0.00000000   -0.00000004    0.00009072
     atom    4 type  2   force =     0.00000001   -0.00000000    0.00015083
     atom    5 type  2   force =     0.00000001   -0.00000002   -0.00052291
     atom    6 type  2   force =    -0.00000000    0.00000002   -0.00063239
     atom    7 type  1   force =     0.00000000    0.00000000    0.00000000
     The Hubbard contrib.    to forces
     atom    1 type  2   force =     0.00000000    0.00000000    0.00000000
     atom    2 type  2   force =     0.00000000    0.00000000    0.00000000
     atom    3 type  2   force =     0.00000000    0.00000000    0.00000000
     atom    4 type  2   force =     0.00000000    0.00000000    0.00000000
     atom    5 type  2   force =     0.00000000    0.00000000    0.00000000
     atom    6 type  2   force =     0.00000000    0.00000000    0.00000000
     atom    7 type  1   force =     0.00000000    0.00000000    0.00000000
     The SCF correction term to forces
     atom    1 type  2   force =     0.00000002    0.00000013    0.00006950
     atom    2 type  2   force =    -0.00000000    0.00000006   -0.00009277
     atom    3 type  2   force =    -0.00000000   -0.00000007   -0.00003118
     atom    4 type  2   force =    -0.00000005   -0.00000009    0.00006847
     atom    5 type  2   force =     0.00000005    0.00000004   -0.00006380
     atom    6 type  2   force =     0.00000000    0.00000000    0.00000800
     atom    7 type  1   force =     0.00000002    0.00000001   -0.00001130

     DFT-D3 dispersion contribution to forces:
     atom    1 type  2   force =    -0.00000000    0.00000000    0.00521919
     atom    2 type  2   force =     0.00000000   -0.00000000    0.00428756
     atom    3 type  2   force =     0.00000000   -0.00000003   -0.00054304
     atom    4 type  2   force =     0.00000001   -0.00000000    0.00094344
     atom    5 type  2   force =     0.00000001   -0.00000002   -0.00388111
     atom    6 type  2   force =     0.00000000    0.00000001   -0.00408580
     atom    7 type  1   force =    -0.00000002    0.00000003   -0.00194024

     Total force =     0.001561     Total SCF correction =     0.000153


     Computing stress (Cartesian axis) and pressure


     negative rho (up, down):  9.430E-06 0.000E+00
          total   stress  (Ry/bohr**3)                   (kbar)     P=      -16.55
  -0.00013979  -0.00000000   0.00000000          -20.56       -0.00        0.00
  -0.00000000  -0.00013979  -0.00000000           -0.00      -20.56       -0.00
   0.00000000  -0.00000000  -0.00005802            0.00       -0.00       -8.54

     Energy error            =      3.0E-05 Ry
     Gradient error          =      8.1E-04 Ry/Bohr

     bfgs converged in  22 scf cycles and  21 bfgs steps
     (criteria: energy <  1.0E-04 Ry, force <  1.0E-03 Ry/Bohr)

     End of BFGS Geometry Optimization

     Final energy             =    -520.6007132626 Ry

     File ./Ag_mp-124_100_ontop_0/Ag_mp-124_100_ontop_0.bfgs deleted, as requested
Begin final coordinates

ATOMIC_POSITIONS (angstrom)
Ag            2.1766644065        0.7255560435       11.9908311238
Ag            0.7255554454        2.1766651386        9.9435710387
Ag            2.1766631932        0.7255544210       16.0664760027
Ag            0.7255554313        2.1766641514       14.0352333175
Ag            2.1766582849        0.7255615320       20.1673976399
Ag            0.7255518992        2.1766682131       18.0967169884
Li            2.1766693815        0.7255459988       22.6821986601
End final coordinates



     Writing all to output data dir ./Ag_mp-124_100_ontop_0/Ag_mp-124_100_ontop_0.save/

     init_run     :      5.56s CPU      9.16s WALL (       1 calls)
     electrons    :     84.60s CPU    104.52s WALL (      22 calls)
     update_pot   :      6.57s CPU      7.52s WALL (      21 calls)
     forces       :      6.27s CPU      8.34s WALL (      22 calls)
     force_dftd3  :      1.00s CPU      1.40s WALL (      22 calls)
     stress       :     19.03s CPU     19.63s WALL (      22 calls)
     stres_dftd3  :      0.25s CPU      0.35s WALL (      22 calls)

     Called by init_run:
     wfcinit      :      0.30s CPU      0.55s WALL (       1 calls)
     potinit      :      1.27s CPU      3.33s WALL (       1 calls)
     hinit0       :      3.84s CPU      4.86s WALL (       1 calls)

     Called by electrons:
     c_bands      :     66.60s CPU     70.94s WALL (     200 calls)
     sum_band     :     10.24s CPU     11.35s WALL (     200 calls)
     v_of_rho     :      4.35s CPU     16.58s WALL (     210 calls)
     newd         :      3.16s CPU      5.13s WALL (     210 calls)
     mix_rho      :      0.41s CPU      0.75s WALL (     200 calls)
     energy_dftd3 :      0.05s CPU      0.05s WALL (      22 calls)

     Called by c_bands:
     init_us_2    :      0.59s CPU      0.64s WALL (    4005 calls)
     init_us_2:cp :      0.58s CPU      0.64s WALL (    4005 calls)
     cegterg      :     60.95s CPU     63.32s WALL (    1800 calls)

     Called by *egterg:
     cdiaghg      :     13.96s CPU     14.09s WALL (    6441 calls)
     h_psi        :     37.10s CPU     38.98s WALL (    6747 calls)
     s_psi        :      1.97s CPU      2.01s WALL (    6747 calls)
     g_psi        :      0.18s CPU      0.18s WALL (    4938 calls)

     Called by h_psi:
     h_psi:calbec :      3.05s CPU      3.42s WALL (    6747 calls)
     vloc_psi     :     32.00s CPU     33.41s WALL (    6747 calls)
     add_vuspsi   :      1.90s CPU      2.01s WALL (    6747 calls)

     General routines
     calbec       :      5.12s CPU      5.67s WALL (    9537 calls)
     fft          :      9.91s CPU     27.46s WALL (    3269 calls)
     ffts         :      1.12s CPU      1.43s WALL (     410 calls)
     fftw         :     33.33s CPU     34.82s WALL (  459658 calls)
     interpolate  :      1.55s CPU      2.61s WALL (     210 calls)

     Parallel routines

     PWSCF        :   2m 3.25s CPU   2m31.85s WALL


   This run was terminated on:   5:16:16  24Jul2025            

=------------------------------------------------------------------------------=
   JOB DONE.
=------------------------------------------------------------------------------=
