
     Program PWSCF v.7.2 starts on 18Jul2025 at 11:22:55 

     This program is part of the open-source Quantum ESPRESSO suite
     for quantum simulation of materials; please cite
         "P. Giannozzi et al., J. Phys.:Condens. Matter 21 395502 (2009);
         "P. Giannozzi et al., J. Phys.:Condens. Matter 29 465901 (2017);
         "P. Giannozzi et al., J. Chem. Phys. 152 154105 (2020);
          URL http://www.quantum-espresso.org", 
     in publications or presentations arising from this work. More details at
     http://www.quantum-espresso.org/quote

     Parallel version (MPI & OpenMP), running on     128 processor cores
     Number of MPI processes:               128
     Threads/MPI process:                     1

     MPI processes distributed on     2 nodes
     240639 MiB available memory on the printing compute node when the environment starts

     Reading input from Ag_mp-124_100.in

     Current dimensions of program PWSCF are:
     Max number of different atomic species (ntypx) = 10
     Max number of k-points (npk) =  40000
     Max angular momentum in pseudopotentials (lmaxx) =  4
     Message from routine iosys:
     restart disabled: needed files not found

     K-points division:     npool     =       4
     R & G space division:  proc/nbgrp/npool/nimage =      32
     Subspace diagonalization in iterative solution of the eigenvalue problem:
     a serial algorithm will be used


     Parallelization info
     --------------------
     sticks:   dense  smooth     PW     G-vecs:    dense   smooth      PW
     Min          37      16      5                10139     2936     487
     Max          38      17      6                10190     2975     521
     Sum        1201     517    161               325127    94489   16093

     Using Slab Decomposition



     bravais-lattice index     =            0
     lattice parameter (alat)  =       5.4844  a.u.
     unit-cell volume          =    1720.0396 (a.u.)^3
     number of atoms/cell      =            6
     number of atomic types    =            1
     number of electrons       =        66.00
     number of Kohn-Sham states=           40
     kinetic-energy cutoff     =      55.0000  Ry
     charge density cutoff     =     500.0000  Ry
     scf convergence threshold =      1.0E-06
     mixing beta               =       0.3000
     number of iterations used =            8  plain     mixing
     energy convergence thresh.=      1.0E-04
     force convergence thresh. =      1.0E-03
     Exchange-correlation= PBE
                           (   1   4   3   4   0   0   0)
     nstep                     =          500


     celldm(1)=   5.484398  celldm(2)=   0.000000  celldm(3)=   0.000000
     celldm(4)=   0.000000  celldm(5)=   0.000000  celldm(6)=   0.000000

     crystal axes: (cart. coord. in units of alat)
               a(1) = (   1.000000   0.000000   0.000000 )  
               a(2) = (   0.000000   1.000000   0.000000 )  
               a(3) = (   0.000000   0.000000  10.426814 )  

     reciprocal axes: (cart. coord. in units 2 pi/alat)
               b(1) = (  1.000000 -0.000000  0.000000 )  
               b(2) = (  0.000000  1.000000  0.000000 )  
               b(3) = ( -0.000000 -0.000000  0.095907 )  


     PseudoPot. # 1 for Ag read from file:
     /home/ecastro/trabajo_final/pseudos/Ag.pbe-n-rrkjus_psl.1.0.0.UPF
     MD5 check sum: 81cdf87bacf708300839c66ee23ce017
     Pseudo is Ultrasoft + core correction, Zval = 11.0
     Generated using &quot;atomic&quot; code by A. Dal Corso  v.6.2.2
     Using radial grid of 1237 points,  6 beta functions with: 
                l(1) =   0
                l(2) =   0
                l(3) =   1
                l(4) =   1
                l(5) =   2
                l(6) =   2
     Q(r) pseudized with 0 coefficients 


     atomic species   valence    mass     pseudopotential
        Ag            11.00   107.86820     Ag( 1.00)

     No symmetry found



   Cartesian axes

     site n.     atom                  positions (alat units)
         1           Ag  tau(   1) = (   0.7500000   0.2500000   4.1527471  )
         2           Ag  tau(   2) = (   0.2500000   0.7500000   3.4456403  )
         3           Ag  tau(   3) = (   0.7500000   0.2500000   5.5669606  )
         4           Ag  tau(   4) = (   0.2500000   0.7500000   4.8598538  )
         5           Ag  tau(   5) = (   0.7500000   0.2500000   6.9811742  )
         6           Ag  tau(   6) = (   0.2500000   0.7500000   6.2740674  )

     --------------------------------------------
     DFT-D3 Dispersion Correction (no 3-body):
     --------------------------------------------
       Reference C6 values for interpolation: 

         atom   Coordination number   C6
         Ag         0.000           853.49
         Ag         0.968           537.23

       Values used:

         atom   Coordination number  R0_AB[au]  C6      C8
         Ag         8.688            3.147    537.23  47741.54
         Ag         5.822            3.147    537.23  47741.54
         Ag         8.716            3.147    537.23  47741.54
         Ag         8.716            3.147    537.23  47741.54
         Ag         5.822            3.147    537.23  47741.54
         Ag         8.688            3.147    537.23  47741.54

         Molecular C6 ( Ry / a.u.^6 ) =     19340.14


     number of k points=    34  Methfessel-Paxton smearing, width (Ry)=  0.0300
                       cart. coord. in units 2pi/alat
        k(    1) = (   0.0000000   0.0000000   0.0000000), wk =   0.0312500
        k(    2) = (   0.0000000   0.1250000   0.0000000), wk =   0.0625000
        k(    3) = (   0.0000000   0.2500000   0.0000000), wk =   0.0625000
        k(    4) = (   0.0000000   0.3750000   0.0000000), wk =   0.0625000
        k(    5) = (   0.0000000  -0.5000000   0.0000000), wk =   0.0312500
        k(    6) = (   0.1250000  -0.0000000   0.0000000), wk =   0.0625000
        k(    7) = (   0.1250000   0.1250000   0.0000000), wk =   0.0625000
        k(    8) = (   0.1250000   0.2500000   0.0000000), wk =   0.0625000
        k(    9) = (   0.1250000   0.3750000   0.0000000), wk =   0.0625000
        k(   10) = (   0.1250000  -0.5000000   0.0000000), wk =   0.0625000
        k(   11) = (   0.1250000  -0.3750000   0.0000000), wk =   0.0625000
        k(   12) = (   0.1250000  -0.2500000   0.0000000), wk =   0.0625000
        k(   13) = (   0.1250000  -0.1250000   0.0000000), wk =   0.0625000
        k(   14) = (   0.2500000  -0.0000000   0.0000000), wk =   0.0625000
        k(   15) = (   0.2500000   0.1250000   0.0000000), wk =   0.0625000
        k(   16) = (   0.2500000   0.2500000   0.0000000), wk =   0.0625000
        k(   17) = (   0.2500000   0.3750000   0.0000000), wk =   0.0625000
        k(   18) = (   0.2500000  -0.5000000   0.0000000), wk =   0.0625000
        k(   19) = (   0.2500000  -0.3750000   0.0000000), wk =   0.0625000
        k(   20) = (   0.2500000  -0.2500000   0.0000000), wk =   0.0625000
        k(   21) = (   0.2500000  -0.1250000   0.0000000), wk =   0.0625000
        k(   22) = (   0.3750000  -0.0000000   0.0000000), wk =   0.0625000
        k(   23) = (   0.3750000   0.1250000   0.0000000), wk =   0.0625000
        k(   24) = (   0.3750000   0.2500000   0.0000000), wk =   0.0625000
        k(   25) = (   0.3750000   0.3750000   0.0000000), wk =   0.0625000
        k(   26) = (   0.3750000  -0.5000000   0.0000000), wk =   0.0625000
        k(   27) = (   0.3750000  -0.3750000   0.0000000), wk =   0.0625000
        k(   28) = (   0.3750000  -0.2500000   0.0000000), wk =   0.0625000
        k(   29) = (   0.3750000  -0.1250000   0.0000000), wk =   0.0625000
        k(   30) = (  -0.5000000   0.0000000   0.0000000), wk =   0.0312500
        k(   31) = (  -0.5000000   0.1250000   0.0000000), wk =   0.0625000
        k(   32) = (  -0.5000000   0.2500000   0.0000000), wk =   0.0625000
        k(   33) = (  -0.5000000   0.3750000   0.0000000), wk =   0.0625000
        k(   34) = (  -0.5000000  -0.5000000   0.0000000), wk =   0.0312500

     Dense  grid:   325127 G-vectors     FFT dimensions: (  40,  40, 432)

     Smooth grid:    94489 G-vectors     FFT dimensions: (  25,  25, 270)

     Estimated max dynamical RAM per process >      18.32 MB

     Estimated total dynamical RAM >       2.06 GB
     Cannot read rho : file not found

     Initial potential from superposition of free atoms

     starting charge      65.9976, renormalised to      66.0000

     negative rho (up, down):  3.747E-05 0.000E+00
     Message from routine qexsd_readschema :
     xml data file ./Ag_100/Ag_100.save/data-file-schema.xml not found
     Cannot read wfcs: file not found
     Starting wfcs are   54 randomized atomic wfcs

     total cpu time spent up to now is        9.2 secs

     per-process dynamical memory:   172.6 Mb

     Self-consistent Calculation

     iteration #  1     ecut=    55.00 Ry     beta= 0.30
     Davidson diagonalization with overlap
     c_bands:  2 eigenvalues not converged
     c_bands:  1 eigenvalues not converged
     c_bands:  1 eigenvalues not converged
     c_bands:  1 eigenvalues not converged
     ethr =  1.00E-05,  avg # of iterations = 17.7

     negative rho (up, down):  3.057E-05 0.000E+00

     total cpu time spent up to now is       14.7 secs

     total energy              =    -505.68961954 Ry
     estimated scf accuracy    <       0.13479053 Ry

     iteration #  2     ecut=    55.00 Ry     beta= 0.30
     Davidson diagonalization with overlap
     ethr =  2.04E-04,  avg # of iterations =  8.2

     negative rho (up, down):  2.725E-05 0.000E+00

     total cpu time spent up to now is       16.1 secs

     total energy              =    -505.64978775 Ry
     estimated scf accuracy    <       1.12739036 Ry

     iteration #  3     ecut=    55.00 Ry     beta= 0.30
     Davidson diagonalization with overlap
     ethr =  2.04E-04,  avg # of iterations =  5.0

     negative rho (up, down):  2.106E-05 0.000E+00

     total cpu time spent up to now is       17.2 secs

     total energy              =    -505.73081636 Ry
     estimated scf accuracy    <       0.02472739 Ry

     iteration #  4     ecut=    55.00 Ry     beta= 0.30
     Davidson diagonalization with overlap
     ethr =  3.75E-05,  avg # of iterations =  2.4

     negative rho (up, down):  1.704E-05 0.000E+00

     total cpu time spent up to now is       17.8 secs

     total energy              =    -505.73249666 Ry
     estimated scf accuracy    <       0.00183555 Ry

     iteration #  5     ecut=    55.00 Ry     beta= 0.30
     Davidson diagonalization with overlap
     ethr =  2.78E-06,  avg # of iterations =  9.5

     negative rho (up, down):  1.534E-05 0.000E+00

     total cpu time spent up to now is       18.7 secs

     total energy              =    -505.73263840 Ry
     estimated scf accuracy    <       0.00051325 Ry

     iteration #  6     ecut=    55.00 Ry     beta= 0.30
     Davidson diagonalization with overlap
     ethr =  7.78E-07,  avg # of iterations =  6.6

     negative rho (up, down):  1.502E-05 0.000E+00

     total cpu time spent up to now is       19.6 secs

     total energy              =    -505.73214777 Ry
     estimated scf accuracy    <       0.02475539 Ry

     iteration #  7     ecut=    55.00 Ry     beta= 0.30
     Davidson diagonalization with overlap
     ethr =  7.78E-07,  avg # of iterations =  5.4

     negative rho (up, down):  1.491E-05 0.000E+00

     total cpu time spent up to now is       22.0 secs

     total energy              =    -505.73276253 Ry
     estimated scf accuracy    <       0.00006635 Ry

     iteration #  8     ecut=    55.00 Ry     beta= 0.30
     Davidson diagonalization with overlap
     ethr =  1.01E-07,  avg # of iterations =  3.4

     negative rho (up, down):  1.427E-05 0.000E+00

     total cpu time spent up to now is       23.1 secs

     total energy              =    -505.73277727 Ry
     estimated scf accuracy    <       0.00001987 Ry

     iteration #  9     ecut=    55.00 Ry     beta= 0.30
     Davidson diagonalization with overlap
     ethr =  3.01E-08,  avg # of iterations =  1.7

     negative rho (up, down):  1.377E-05 0.000E+00

     total cpu time spent up to now is       23.6 secs

     total energy              =    -505.73277678 Ry
     estimated scf accuracy    <       0.00001027 Ry

     iteration # 10     ecut=    55.00 Ry     beta= 0.30
     Davidson diagonalization with overlap
     ethr =  1.56E-08,  avg # of iterations =  1.8

     negative rho (up, down):  1.351E-05 0.000E+00

     total cpu time spent up to now is       25.6 secs

     total energy              =    -505.73277614 Ry
     estimated scf accuracy    <       0.00000404 Ry

     iteration # 11     ecut=    55.00 Ry     beta= 0.30
     Davidson diagonalization with overlap
     ethr =  6.13E-09,  avg # of iterations =  2.1

     negative rho (up, down):  1.296E-05 0.000E+00

     total cpu time spent up to now is       26.2 secs

     End of self-consistent calculation

          k = 0.0000 0.0000 0.0000 ( 11951 PWs)   bands (ev):

    -4.8059  -4.1542  -3.5869  -3.4755  -3.4345  -3.2700  -3.1325  -2.9852
    -2.9190  -2.5621  -2.3084  -2.1356  -1.9888  -1.9888  -1.7288  -1.7288
    -1.2978  -1.2978  -1.2925  -1.2723  -1.1315  -1.0270  -0.9158  -0.8238
    -0.8238  -0.7054  -0.4932  -0.4360  -0.4360  -0.3729  -0.3728  -0.3213
    -0.1704  -0.1704   1.3149   3.0552   4.0531   6.7228   6.8040   7.4117

          k = 0.0000 0.1250 0.0000 ( 11903 PWs)   bands (ev):

    -4.5018  -3.8979  -3.4538  -3.3052  -3.2956  -3.0930  -2.9804  -2.9308
    -2.6756  -2.4154  -2.2347  -2.0376  -2.0174  -1.9325  -1.8500  -1.7392
    -1.6131  -1.4273  -1.3572  -1.2164  -1.1438  -1.1005  -1.0084  -0.9143
    -0.8630  -0.8283  -0.6998  -0.6058  -0.5461  -0.4570  -0.4493  -0.2830
    -0.1760   0.2466   1.8501   3.5608   4.6938   7.0124   7.0783   7.7038

          k = 0.0000 0.2500 0.0000 ( 11877 PWs)   bands (ev):

    -3.7623  -3.5007  -3.2684  -3.2198  -2.9241  -2.9223  -2.7572  -2.5131
    -2.2016  -2.0749  -1.9644  -1.8561  -1.8298  -1.8268  -1.8085  -1.7121
    -1.6416  -1.6378  -1.4779  -1.4663  -1.3778  -1.3154  -1.1642  -1.1249
    -0.9106  -0.8499  -0.8347  -0.7630  -0.5683  -0.3826  -0.2770  -0.2589
    -0.2549   1.1486   2.9272   4.7404   6.1501   7.8811   7.8930   8.1785

          k = 0.0000 0.3750 0.0000 ( 11873 PWs)   bands (ev):

    -3.4761  -3.4604  -3.2156  -3.1398  -2.8118  -2.7038  -2.3481  -2.2973
    -2.1667  -2.0609  -2.0095  -1.9444  -1.9383  -1.9001  -1.7497  -1.7114
    -1.6928  -1.6904  -1.3515  -1.3187  -1.2966  -1.0348  -0.9833  -0.7643
    -0.7497  -0.5718  -0.5141  -0.4966  -0.3319  -0.3203   0.1011   0.1365
     0.8220   2.3373   4.0366   4.8646   5.9109   6.1065   7.3140   7.8513

          k = 0.0000-0.5000 0.0000 ( 11796 PWs)   bands (ev):

    -3.5281  -3.5281  -3.1822  -3.1822  -2.6433  -2.6432  -2.2047  -2.2047
    -2.1866  -2.1865  -2.0619  -2.0619  -2.0145  -2.0145  -1.7715  -1.7714
    -1.6134  -1.6134  -1.3895  -1.3895  -0.9459  -0.9458  -0.8355  -0.8354
    -0.5454  -0.5454  -0.4176  -0.4176  -0.3479  -0.3479   2.1418   2.1418
     2.2262   2.2263   2.7831   2.7832   5.4533   5.4534   7.1950   7.1950

          k = 0.1250-0.0000 0.0000 ( 11903 PWs)   bands (ev):

    -4.5018  -3.8979  -3.4538  -3.3052  -3.2956  -3.0930  -2.9804  -2.9308
    -2.6756  -2.4154  -2.2347  -2.0376  -2.0174  -1.9325  -1.8500  -1.7392
    -1.6131  -1.4273  -1.3572  -1.2164  -1.1438  -1.1005  -1.0084  -0.9143
    -0.8630  -0.8283  -0.6998  -0.6058  -0.5461  -0.4570  -0.4493  -0.2830
    -0.1760   0.2466   1.8501   3.5608   4.6938   7.0124   7.0783   7.7037

          k = 0.1250 0.1250 0.0000 ( 11887 PWs)   bands (ev):

    -4.2048  -3.6279  -3.2655  -3.1815  -3.0527  -3.0129  -2.7733  -2.7241
    -2.5982  -2.4553  -2.3251  -1.9729  -1.9484  -1.8702  -1.8682  -1.8135
    -1.7291  -1.5490  -1.3399  -1.3015  -1.2620  -1.2603  -1.1550  -1.0475
    -0.8951  -0.8657  -0.7484  -0.6675  -0.5746  -0.5672  -0.4624  -0.2275
    -0.1784   0.7144   2.2952   4.0085   5.2308   7.3024   7.3508   7.9968

          k = 0.1250 0.2500 0.0000 ( 11878 PWs)   bands (ev):

    -3.5113  -3.2345  -3.0153  -3.0116  -2.7707  -2.7350  -2.6769  -2.5074
    -2.3633  -2.1616  -2.1227  -1.9839  -1.8931  -1.8764  -1.7903  -1.7568
    -1.7479  -1.6020  -1.5024  -1.4785  -1.4292  -1.3692  -1.1230  -1.0238
    -0.9857  -0.9579  -0.8379  -0.8064  -0.6413  -0.4559  -0.3733  -0.2443
     0.3414   1.6141   3.3167   5.1125   6.5423   8.1582   8.1707   8.5305

          k = 0.1250 0.3750 0.0000 ( 11868 PWs)   bands (ev):

    -3.2777  -3.2773  -3.0393  -3.0011  -2.6787  -2.6098  -2.5400  -2.4308
    -2.1711  -2.1485  -2.1188  -2.0339  -1.9966  -1.8522  -1.8261  -1.7206
    -1.6481  -1.6279  -1.4464  -1.4193  -1.2294  -1.1893  -1.0519  -0.7927
    -0.7395  -0.7217  -0.4984  -0.4809  -0.3994  -0.3963   0.2625   0.5858
     1.4906   2.8805   4.5199   5.2253   6.1511   6.4279   7.4992   8.1263

          k = 0.1250-0.5000 0.0000 ( 11862 PWs)   bands (ev):

    -3.3546  -3.3546  -3.0716  -3.0716  -2.6229  -2.6228  -2.3627  -2.3627
    -2.2597  -2.2597  -2.0873  -2.0872  -1.9880  -1.9880  -1.7956  -1.7956
    -1.6811  -1.6811  -1.2582  -1.2582  -1.1617  -1.1617  -0.7791  -0.7791
    -0.6756  -0.6755  -0.4140  -0.4140  -0.3027  -0.3026   2.4229   2.4229
     2.7634   2.7635   3.3728   3.3728   5.6753   5.6754   7.3690   7.3691

          k = 0.1250-0.3750 0.0000 ( 11868 PWs)   bands (ev):

    -3.2777  -3.2773  -3.0393  -3.0011  -2.6787  -2.6098  -2.5400  -2.4308
    -2.1711  -2.1485  -2.1188  -2.0339  -1.9966  -1.8522  -1.8261  -1.7206
    -1.6481  -1.6279  -1.4464  -1.4193  -1.2294  -1.1893  -1.0519  -0.7927
    -0.7395  -0.7217  -0.4984  -0.4809  -0.3994  -0.3963   0.2625   0.5858
     1.4906   2.8805   4.5199   5.2253   6.1511   6.4279   7.4991   8.1260

          k = 0.1250-0.2500 0.0000 ( 11878 PWs)   bands (ev):

    -3.5113  -3.2345  -3.0153  -3.0116  -2.7707  -2.7350  -2.6769  -2.5074
    -2.3633  -2.1616  -2.1227  -1.9839  -1.8931  -1.8764  -1.7903  -1.7568
    -1.7479  -1.6020  -1.5024  -1.4785  -1.4292  -1.3692  -1.1230  -1.0238
    -0.9857  -0.9579  -0.8379  -0.8064  -0.6413  -0.4559  -0.3733  -0.2443
     0.3414   1.6141   3.3167   5.1125   6.5423   8.1580   8.1707   8.5304

          k = 0.1250-0.1250 0.0000 ( 11887 PWs)   bands (ev):

    -4.2048  -3.6279  -3.2655  -3.1815  -3.0527  -3.0129  -2.7733  -2.7241
    -2.5982  -2.4553  -2.3251  -1.9729  -1.9484  -1.8702  -1.8682  -1.8135
    -1.7291  -1.5490  -1.3399  -1.3015  -1.2620  -1.2603  -1.1550  -1.0475
    -0.8951  -0.8657  -0.7484  -0.6675  -0.5746  -0.5672  -0.4624  -0.2275
    -0.1784   0.7144   2.2952   4.0085   5.2308   7.3024   7.3508   7.9968

          k = 0.2500-0.0000 0.0000 ( 11877 PWs)   bands (ev):

    -3.7623  -3.5007  -3.2684  -3.2198  -2.9241  -2.9223  -2.7572  -2.5131
    -2.2016  -2.0749  -1.9644  -1.8561  -1.8298  -1.8268  -1.8085  -1.7121
    -1.6416  -1.6378  -1.4779  -1.4663  -1.3778  -1.3154  -1.1642  -1.1249
    -0.9106  -0.8499  -0.8347  -0.7630  -0.5683  -0.3826  -0.2770  -0.2589
    -0.2549   1.1486   2.9272   4.7404   6.1501   7.8811   7.8929   8.1780

          k = 0.2500 0.1250 0.0000 ( 11878 PWs)   bands (ev):

    -3.5113  -3.2345  -3.0153  -3.0116  -2.7707  -2.7350  -2.6769  -2.5074
    -2.3633  -2.1616  -2.1227  -1.9839  -1.8931  -1.8764  -1.7903  -1.7568
    -1.7479  -1.6020  -1.5024  -1.4785  -1.4292  -1.3692  -1.1230  -1.0238
    -0.9857  -0.9579  -0.8379  -0.8064  -0.6413  -0.4559  -0.3733  -0.2443
     0.3414   1.6141   3.3167   5.1125   6.5423   8.1582   8.1707   8.5304

          k = 0.2500 0.2500 0.0000 ( 11857 PWs)   bands (ev):

    -3.0992  -2.8524  -2.7850  -2.7173  -2.6444  -2.6002  -2.5343  -2.4743
    -2.3924  -2.3449  -2.3362  -2.3357  -2.1136  -1.8984  -1.8978  -1.7032
    -1.4713  -1.4709  -1.3198  -1.2987  -1.2300  -1.2129  -1.1497  -1.0535
    -1.0299  -1.0058  -0.8659  -0.8582  -0.5141  -0.4968  -0.1930   0.2347
     1.2631   2.6161   4.2921   6.0913   7.6000   8.9424   9.0349   9.7531

          k = 0.2500 0.3750 0.0000 ( 11826 PWs)   bands (ev):

    -3.0738  -3.0518  -2.9982  -2.9331  -2.8632  -2.8230  -2.6874  -2.6247
    -2.4361  -2.3524  -2.2529  -2.1558  -1.8518  -1.8021  -1.7624  -1.5169
    -1.3758  -1.3328  -1.2755  -1.2518  -1.1599  -1.0793  -0.9919  -0.8323
    -0.8185  -0.5700  -0.4971  -0.4529  -0.3970  -0.2515   0.7711   1.5541
     2.6747   4.0586   5.6773   6.0269   6.8167   7.3779   8.0917   8.9776

          k = 0.2500-0.5000 0.0000 ( 11818 PWs)   bands (ev):

    -3.1254  -3.1254  -3.1148  -3.1148  -2.9286  -2.9286  -2.7334  -2.7333
    -2.4546  -2.4545  -2.2683  -2.2682  -1.6386  -1.6386  -1.5072  -1.5071
    -1.3725  -1.3725  -1.2813  -1.2812  -1.1308  -1.1308  -0.7670  -0.7670
    -0.5137  -0.5137  -0.2959  -0.2959  -0.2541  -0.2541   3.1253   3.1253
     3.8110   3.8110   4.7694   4.7695   6.3687   6.3687   7.9928   7.9930

          k = 0.2500-0.3750 0.0000 ( 11826 PWs)   bands (ev):

    -3.0738  -3.0518  -2.9982  -2.9331  -2.8632  -2.8230  -2.6874  -2.6247
    -2.4361  -2.3524  -2.2529  -2.1558  -1.8518  -1.8021  -1.7624  -1.5169
    -1.3758  -1.3328  -1.2755  -1.2518  -1.1599  -1.0793  -0.9919  -0.8323
    -0.8185  -0.5700  -0.4971  -0.4529  -0.3970  -0.2515   0.7711   1.5541
     2.6747   4.0586   5.6773   6.0269   6.8167   7.3779   8.0918   8.9781

          k = 0.2500-0.2500 0.0000 ( 11857 PWs)   bands (ev):

    -3.0992  -2.8524  -2.7850  -2.7173  -2.6444  -2.6002  -2.5343  -2.4743
    -2.3924  -2.3449  -2.3362  -2.3357  -2.1136  -1.8984  -1.8978  -1.7032
    -1.4713  -1.4709  -1.3198  -1.2987  -1.2300  -1.2129  -1.1497  -1.0535
    -1.0299  -1.0058  -0.8659  -0.8582  -0.5141  -0.4968  -0.1930   0.2347
     1.2631   2.6161   4.2921   6.0913   7.5999   8.8830   8.9423   9.0350

          k = 0.2500-0.1250 0.0000 ( 11878 PWs)   bands (ev):

    -3.5113  -3.2345  -3.0153  -3.0116  -2.7707  -2.7350  -2.6769  -2.5074
    -2.3633  -2.1616  -2.1227  -1.9839  -1.8931  -1.8764  -1.7903  -1.7568
    -1.7479  -1.6020  -1.5024  -1.4785  -1.4292  -1.3692  -1.1230  -1.0238
    -0.9857  -0.9579  -0.8379  -0.8064  -0.6413  -0.4559  -0.3733  -0.2443
     0.3414   1.6141   3.3167   5.1125   6.5423   8.1582   8.1707   8.5304

          k = 0.3750-0.0000 0.0000 ( 11873 PWs)   bands (ev):

    -3.4761  -3.4604  -3.2155  -3.1398  -2.8118  -2.7038  -2.3481  -2.2973
    -2.1667  -2.0609  -2.0095  -1.9444  -1.9383  -1.9001  -1.7497  -1.7114
    -1.6928  -1.6904  -1.3515  -1.3187  -1.2966  -1.0348  -0.9833  -0.7643
    -0.7497  -0.5718  -0.5141  -0.4966  -0.3319  -0.3203   0.1011   0.1365
     0.8220   2.3373   4.0366   4.8646   5.9109   6.1065   7.3141   7.8515

          k = 0.3750 0.1250 0.0000 ( 11868 PWs)   bands (ev):

    -3.2777  -3.2773  -3.0393  -3.0011  -2.6787  -2.6098  -2.5400  -2.4308
    -2.1711  -2.1485  -2.1188  -2.0339  -1.9966  -1.8522  -1.8261  -1.7206
    -1.6481  -1.6279  -1.4464  -1.4193  -1.2294  -1.1893  -1.0519  -0.7927
    -0.7395  -0.7217  -0.4984  -0.4809  -0.3994  -0.3963   0.2625   0.5858
     1.4906   2.8805   4.5199   5.2253   6.1511   6.4279   7.4992   8.1263

          k = 0.3750 0.2500 0.0000 ( 11826 PWs)   bands (ev):

    -3.0738  -3.0518  -2.9982  -2.9331  -2.8632  -2.8230  -2.6874  -2.6247
    -2.4361  -2.3524  -2.2529  -2.1558  -1.8518  -1.8021  -1.7624  -1.5169
    -1.3758  -1.3328  -1.2755  -1.2518  -1.1599  -1.0793  -0.9919  -0.8323
    -0.8185  -0.5700  -0.4971  -0.4529  -0.3970  -0.2515   0.7711   1.5541
     2.6747   4.0586   5.6773   6.0269   6.8167   7.3779   8.0917   8.9776

          k = 0.3750 0.3750 0.0000 ( 11799 PWs)   bands (ev):

    -3.3223  -3.2908  -3.2469  -3.2099  -3.0087  -2.9509  -2.9345  -2.8956
    -2.5033  -2.4981  -2.4496  -2.4134  -1.8890  -1.8079  -1.3234  -1.2565
    -1.0170  -0.9347  -0.8076  -0.8007  -0.7270  -0.7261  -0.6812  -0.5477
    -0.4786  -0.4684  -0.4528  -0.4079  -0.3004  -0.1693   2.0055   2.9670
     4.2087   5.6096   6.0978   7.0802   7.1729   8.4983   8.8005   9.6309

          k = 0.3750-0.5000 0.0000 ( 11750 PWs)   bands (ev):

    -3.4278  -3.4278  -3.3359  -3.3359  -3.1003  -3.1003  -3.0101  -3.0101
    -2.6320  -2.6319  -2.4734  -2.4734  -1.7668  -1.7668  -1.1296  -1.1296
    -0.9469  -0.9469  -0.7450  -0.7449  -0.5711  -0.5711  -0.4972  -0.4972
    -0.3171  -0.3170  -0.2252  -0.2251  -0.1057  -0.1056   4.0799   4.0799
     5.0325   5.0326   6.3161   6.3161   7.7022   7.7022   9.1978   9.1978

          k = 0.3750-0.3750 0.0000 ( 11799 PWs)   bands (ev):

    -3.3223  -3.2908  -3.2469  -3.2099  -3.0087  -2.9509  -2.9345  -2.8956
    -2.5033  -2.4981  -2.4496  -2.4134  -1.8890  -1.8079  -1.3234  -1.2565
    -1.0170  -0.9347  -0.8076  -0.8007  -0.7270  -0.7261  -0.6812  -0.5477
    -0.4786  -0.4684  -0.4528  -0.4079  -0.3004  -0.1693   2.0055   2.9670
     4.2087   5.6096   6.0978   7.0802   7.1729   8.4984   8.8005   9.6309

          k = 0.3750-0.2500 0.0000 ( 11826 PWs)   bands (ev):

    -3.0738  -3.0518  -2.9982  -2.9331  -2.8632  -2.8230  -2.6874  -2.6247
    -2.4361  -2.3524  -2.2529  -2.1558  -1.8518  -1.8021  -1.7624  -1.5169
    -1.3758  -1.3328  -1.2755  -1.2518  -1.1599  -1.0793  -0.9919  -0.8323
    -0.8185  -0.5700  -0.4971  -0.4529  -0.3970  -0.2515   0.7711   1.5541
     2.6747   4.0586   5.6773   6.0269   6.8167   7.3779   8.0917   8.9776

          k = 0.3750-0.1250 0.0000 ( 11868 PWs)   bands (ev):

    -3.2777  -3.2773  -3.0393  -3.0011  -2.6787  -2.6098  -2.5400  -2.4308
    -2.1711  -2.1485  -2.1188  -2.0339  -1.9966  -1.8522  -1.8261  -1.7206
    -1.6481  -1.6279  -1.4464  -1.4193  -1.2294  -1.1893  -1.0519  -0.7927
    -0.7395  -0.7217  -0.4984  -0.4809  -0.3994  -0.3963   0.2625   0.5858
     1.4906   2.8805   4.5199   5.2253   6.1511   6.4279   7.4991   8.1260

          k =-0.5000 0.0000 0.0000 ( 11796 PWs)   bands (ev):

    -3.5281  -3.5281  -3.1822  -3.1822  -2.6433  -2.6432  -2.2047  -2.2047
    -2.1866  -2.1865  -2.0619  -2.0619  -2.0145  -2.0145  -1.7715  -1.7714
    -1.6134  -1.6134  -1.3895  -1.3895  -0.9459  -0.9458  -0.8355  -0.8354
    -0.5454  -0.5454  -0.4176  -0.4176  -0.3479  -0.3479   2.1418   2.1418
     2.2262   2.2263   2.7831   2.7832   5.4533   5.4534   7.1950   7.1950

          k =-0.5000 0.1250 0.0000 ( 11862 PWs)   bands (ev):

    -3.3546  -3.3546  -3.0716  -3.0716  -2.6229  -2.6228  -2.3627  -2.3627
    -2.2597  -2.2597  -2.0873  -2.0872  -1.9880  -1.9880  -1.7956  -1.7956
    -1.6811  -1.6811  -1.2582  -1.2582  -1.1617  -1.1617  -0.7791  -0.7791
    -0.6756  -0.6755  -0.4140  -0.4140  -0.3027  -0.3026   2.4229   2.4229
     2.7634   2.7634   3.3728   3.3728   5.6753   5.6754   7.3690   7.3690

          k =-0.5000 0.2500 0.0000 ( 11818 PWs)   bands (ev):

    -3.1254  -3.1254  -3.1148  -3.1148  -2.9286  -2.9286  -2.7334  -2.7333
    -2.4546  -2.4545  -2.2683  -2.2682  -1.6386  -1.6386  -1.5072  -1.5071
    -1.3725  -1.3725  -1.2813  -1.2812  -1.1308  -1.1308  -0.7670  -0.7670
    -0.5137  -0.5137  -0.2959  -0.2959  -0.2541  -0.2541   3.1253   3.1253
     3.8110   3.8110   4.7694   4.7695   6.3687   6.3687   7.9928   7.9928

          k =-0.5000 0.3750 0.0000 ( 11750 PWs)   bands (ev):

    -3.4278  -3.4278  -3.3359  -3.3359  -3.1003  -3.1003  -3.0101  -3.0101
    -2.6320  -2.6319  -2.4734  -2.4734  -1.7668  -1.7668  -1.1296  -1.1296
    -0.9469  -0.9469  -0.7450  -0.7449  -0.5711  -0.5711  -0.4972  -0.4972
    -0.3171  -0.3170  -0.2252  -0.2251  -0.1057  -0.1056   4.0799   4.0799
     5.0325   5.0325   6.3161   6.3161   7.7022   7.7022   9.1978   9.1978

          k =-0.5000-0.5000 0.0000 ( 11668 PWs)   bands (ev):

    -3.5688  -3.5688  -3.4308  -3.4308  -3.2477  -3.2477  -3.0796  -3.0796
    -2.7863  -2.7862  -2.4813  -2.4813  -1.7383  -1.7383  -0.9716  -0.9716
    -0.9151  -0.9151  -0.6354  -0.6353  -0.3996  -0.3996  -0.3315  -0.3315
    -0.1304  -0.1303  -0.0594  -0.0592   0.1109   0.1111   4.7257   4.7257
     5.8764   5.8764   7.4423   7.4423   9.1669   9.1669   9.3249   9.3249

     the Fermi energy is     2.6766 ev

!    total energy              =    -505.73277684 Ry
     estimated scf accuracy    <       0.00000007 Ry
     smearing contrib. (-TS)   =      -0.00142384 Ry
     internal energy E=F+TS    =    -505.73135300 Ry

     The total energy is F=E-TS. E is the sum of the following terms:
     one-electron contribution =   -6204.53933070 Ry
     hartree contribution      =    3151.46497099 Ry
     xc contribution           =    -133.95023075 Ry
     ewald contribution        =    2681.46487699 Ry
     DFT-D3 Dispersion         =      -0.17163953 Ry

     convergence has been achieved in  11 iterations

     negative rho (up, down):  1.296E-05 0.000E+00

     Forces acting on atoms (cartesian axes, Ry/au):

     atom    1 type  1   force =    -0.00000118   -0.00000098    0.00163724
     atom    2 type  1   force =     0.00000127    0.00000131    0.00095083
     atom    3 type  1   force =     0.00000134   -0.00000172   -0.00089553
     atom    4 type  1   force =    -0.00000164    0.00000108    0.00067680
     atom    5 type  1   force =    -0.00000030   -0.00000057   -0.00078558
     atom    6 type  1   force =     0.00000051    0.00000087   -0.00158375
     The non-local contrib.  to forces
     atom    1 type  1   force =    -0.00000098   -0.00000180   -0.02832374
     atom    2 type  1   force =     0.00000124   -0.00000069   -0.09656756
     atom    3 type  1   force =     0.00000143   -0.00000278    0.00189181
     atom    4 type  1   force =    -0.00000464    0.00000156   -0.00200732
     atom    5 type  1   force =    -0.00000143    0.00000057    0.09676468
     atom    6 type  1   force =     0.00000002   -0.00000018    0.02844909
     The ionic contribution  to forces
     atom    1 type  1   force =    -0.00000000    0.00000000  -89.97577151
     atom    2 type  1   force =    -0.00000000    0.00000000 -147.94898771
     atom    3 type  1   force =    -0.00000000   -0.00000000   29.98214266
     atom    4 type  1   force =    -0.00000000   -0.00000000  -29.98214266
     atom    5 type  1   force =    -0.00000000    0.00000000  147.94898771
     atom    6 type  1   force =    -0.00000000    0.00000000   89.97577151
     The local contribution  to forces
     atom    1 type  1   force =    -0.00000103   -0.00000375   90.00016340
     atom    2 type  1   force =    -0.00000042   -0.00000049  148.03604660
     atom    3 type  1   force =    -0.00000000    0.00000226  -29.98416635
     atom    4 type  1   force =     0.00000190    0.00000009   29.98426776
     atom    5 type  1   force =     0.00000192    0.00000048 -148.03630726
     atom    6 type  1   force =    -0.00000017   -0.00000179  -90.00046630
     The core correction contribution to forces
     atom    1 type  1   force =     0.00000003   -0.00000021    0.00001487
     atom    2 type  1   force =     0.00000003   -0.00000009    0.00615962
     atom    3 type  1   force =     0.00000007    0.00000008    0.00014099
     atom    4 type  1   force =    -0.00000003    0.00000002   -0.00013588
     atom    5 type  1   force =     0.00000008    0.00000004   -0.00616840
     atom    6 type  1   force =    -0.00000002   -0.00000012   -0.00001936
     The Hubbard contrib.    to forces
     atom    1 type  1   force =     0.00000000    0.00000000    0.00000000
     atom    2 type  1   force =     0.00000000    0.00000000    0.00000000
     atom    3 type  1   force =     0.00000000    0.00000000    0.00000000
     atom    4 type  1   force =     0.00000000    0.00000000    0.00000000
     atom    5 type  1   force =     0.00000000    0.00000000    0.00000000
     atom    6 type  1   force =     0.00000000    0.00000000    0.00000000
     The SCF correction term to forces
     atom    1 type  1   force =    -0.00000000    0.00000000    0.00000000
     atom    2 type  1   force =    -0.00000000    0.00000000    0.00000000
     atom    3 type  1   force =    -0.00000000   -0.00000000   -0.00000000
     atom    4 type  1   force =     0.00000000   -0.00000000   -0.00000000
     atom    5 type  1   force =    -0.00000177   -0.00000201    0.00015842
     atom    6 type  1   force =    -0.00000020    0.00000261   -0.00019456

     DFT-D3 dispersion contribution to forces:
     atom    1 type  1   force =    -0.00000000   -0.00000000    0.00511187
     atom    2 type  1   force =    -0.00000000   -0.00000000    0.00420848
     atom    3 type  1   force =    -0.00000000    0.00000000   -0.00076601
     atom    4 type  1   force =     0.00000000   -0.00000000    0.00076601
     atom    5 type  1   force =    -0.00000000   -0.00000000   -0.00420848
     atom    6 type  1   force =     0.00000000   -0.00000000   -0.00511187

     Total force =     0.001768     Total SCF correction =     0.000251
     SCF correction compared to forces is large: reduce conv_thr to get better values


     Computing stress (Cartesian axis) and pressure


     negative rho (up, down):  1.296E-05 0.000E+00
          total   stress  (Ry/bohr**3)                   (kbar)     P=      -16.60
  -0.00013044   0.00000000  -0.00000000          -19.19        0.00       -0.00
   0.00000000  -0.00013042   0.00000000            0.00      -19.19        0.00
  -0.00000000   0.00000000  -0.00007758           -0.00        0.00      -11.41


     BFGS Geometry Optimization
     Energy error            =      0.0E+00 Ry
     Gradient error          =      1.6E-03 Ry/Bohr

     number of scf cycles    =   1
     number of bfgs steps    =   0

     energy             new  =    -505.7327768438 Ry

     new trust radius        =       0.0015837521 bohr
     new conv_thr            =       0.0000010000 Ry


ATOMIC_POSITIONS (angstrom)
Ag            2.1766636603        0.7255545534       12.0521781795    0   0   0
Ag            0.7255545534        2.1766636603       10.0000000000    0   0   0
Ag            2.1766636603        0.7255545534       16.1565345384    0   0   0
Ag            0.7255545534        2.1766636603       14.1043563589    0   0   0
Ag            2.1766634995        0.7255542519       20.2604751857
Ag            0.7255548248        2.1766641205       18.2078746325



     Writing config-only to output data dir ./Ag_100/Ag_100.save/
     NEW-OLD atomic charge density approx. for the potential

     negative rho (up, down):  1.302E-05 0.000E+00

     total cpu time spent up to now is       31.0 secs

     per-process dynamical memory:   185.3 Mb

     Self-consistent Calculation

     iteration #  1     ecut=    55.00 Ry     beta= 0.30
     Davidson diagonalization with overlap
     ethr =  1.00E-06,  avg # of iterations =  2.0

     Threshold (ethr) on eigenvalues was too large:
     Diagonalizing with lowered threshold

     Davidson diagonalization with overlap
     ethr =  2.83E-09,  avg # of iterations =  2.8

     negative rho (up, down):  1.301E-05 0.000E+00

     total cpu time spent up to now is       32.9 secs

     total energy              =    -505.73277916 Ry
     estimated scf accuracy    <       0.00000222 Ry

     iteration #  2     ecut=    55.00 Ry     beta= 0.30
     Davidson diagonalization with overlap
     ethr =  3.37E-09,  avg # of iterations =  2.6

     negative rho (up, down):  1.301E-05 0.000E+00

     total cpu time spent up to now is       33.6 secs

     total energy              =    -505.73277734 Ry
     estimated scf accuracy    <       0.00006401 Ry

     iteration #  3     ecut=    55.00 Ry     beta= 0.30
     Davidson diagonalization with overlap
     ethr =  3.37E-09,  avg # of iterations =  1.9

     negative rho (up, down):  1.300E-05 0.000E+00

     total cpu time spent up to now is       34.3 secs

     total energy              =    -505.73277945 Ry
     estimated scf accuracy    <       0.00002106 Ry

     iteration #  4     ecut=    55.00 Ry     beta= 0.30
     Davidson diagonalization with overlap
     ethr =  3.37E-09,  avg # of iterations =  1.1

     negative rho (up, down):  1.299E-05 0.000E+00

     total cpu time spent up to now is       34.7 secs

     End of self-consistent calculation

          k = 0.0000 0.0000 0.0000 ( 11951 PWs)   bands (ev):

    -4.8071  -4.1549  -3.5880  -3.4766  -3.4354  -3.2707  -3.1324  -2.9852
    -2.9191  -2.5624  -2.3087  -2.1361  -1.9899  -1.9899  -1.7295  -1.7295
    -1.2980  -1.2980  -1.2929  -1.2728  -1.1319  -1.0280  -0.9167  -0.8241
    -0.8241  -0.7058  -0.4934  -0.4363  -0.4363  -0.3731  -0.3728  -0.3217
    -0.1709  -0.1709   1.3146   3.0549   4.0530   6.7248   6.8049   7.4135

          k = 0.0000 0.1250 0.0000 ( 11903 PWs)   bands (ev):

    -4.5030  -3.8985  -3.4549  -3.3061  -3.2967  -3.0935  -2.9805  -2.9308
    -2.6757  -2.4157  -2.2351  -2.0380  -2.0181  -1.9335  -1.8507  -1.7400
    -1.6134  -1.4277  -1.3573  -1.2169  -1.1446  -1.1010  -1.0089  -0.9146
    -0.8630  -0.8289  -0.7003  -0.6058  -0.5464  -0.4570  -0.4497  -0.2834
    -0.1764   0.2462   1.8498   3.5605   4.6937   7.0144   7.0792   7.7056

          k = 0.0000 0.2500 0.0000 ( 11877 PWs)   bands (ev):

    -3.7635  -3.5015  -3.2695  -3.2210  -2.9241  -2.9223  -2.7581  -2.5137
    -2.2019  -2.0754  -1.9648  -1.8566  -1.8310  -1.8274  -1.8095  -1.7126
    -1.6422  -1.6381  -1.4781  -1.4670  -1.3781  -1.3154  -1.1645  -1.1251
    -0.9110  -0.8504  -0.8349  -0.7631  -0.5686  -0.3829  -0.2775  -0.2593
    -0.2554   1.1482   2.9269   4.7403   6.1501   7.8832   7.8936   8.1773

          k = 0.0000 0.3750 0.0000 ( 11873 PWs)   bands (ev):

    -3.4771  -3.4616  -3.2163  -3.1406  -2.8121  -2.7037  -2.3487  -2.2979
    -2.1670  -2.0614  -2.0100  -1.9455  -1.9394  -1.9005  -1.7501  -1.7121
    -1.6932  -1.6910  -1.3517  -1.3191  -1.2965  -1.0351  -0.9835  -0.7647
    -0.7500  -0.5723  -0.5146  -0.4969  -0.3324  -0.3208   0.1007   0.1357
     0.8218   2.3368   4.0361   4.8637   5.9107   6.1064   7.3139   7.8512

          k = 0.0000-0.5000 0.0000 ( 11796 PWs)   bands (ev):

    -3.5292  -3.5292  -3.1829  -3.1829  -2.6434  -2.6432  -2.2054  -2.2053
    -2.1872  -2.1871  -2.0622  -2.0620  -2.0156  -2.0156  -1.7723  -1.7721
    -1.6139  -1.6139  -1.3896  -1.3892  -0.9464  -0.9461  -0.8359  -0.8357
    -0.5457  -0.5457  -0.4181  -0.4181  -0.3483  -0.3483   2.1408   2.1409
     2.2255   2.2257   2.7827   2.7833   5.4530   5.4533   7.1949   7.1949

          k = 0.1250-0.0000 0.0000 ( 11903 PWs)   bands (ev):

    -4.5030  -3.8985  -3.4549  -3.3061  -3.2967  -3.0935  -2.9805  -2.9308
    -2.6757  -2.4157  -2.2351  -2.0380  -2.0181  -1.9335  -1.8507  -1.7400
    -1.6134  -1.4277  -1.3573  -1.2169  -1.1446  -1.1010  -1.0089  -0.9146
    -0.8630  -0.8289  -0.7003  -0.6058  -0.5464  -0.4570  -0.4497  -0.2834
    -0.1764   0.2462   1.8498   3.5605   4.6937   7.0144   7.0792   7.7055

          k = 0.1250 0.1250 0.0000 ( 11887 PWs)   bands (ev):

    -4.2060  -3.6286  -3.2666  -3.1826  -3.0535  -3.0137  -2.7733  -2.7243
    -2.5983  -2.4557  -2.3259  -1.9732  -1.9487  -1.8707  -1.8689  -1.8145
    -1.7297  -1.5494  -1.3400  -1.3020  -1.2621  -1.2610  -1.1555  -1.0478
    -0.8956  -0.8661  -0.7490  -0.6674  -0.5748  -0.5677  -0.4627  -0.2279
    -0.1788   0.7139   2.2949   4.0083   5.2307   7.3045   7.3516   7.9986

          k = 0.1250 0.2500 0.0000 ( 11878 PWs)   bands (ev):

    -3.5125  -3.2354  -3.0164  -3.0127  -2.7715  -2.7351  -2.6773  -2.5079
    -2.3641  -2.1620  -2.1236  -1.9845  -1.8934  -1.8772  -1.7912  -1.7571
    -1.7486  -1.6022  -1.5026  -1.4786  -1.4292  -1.3694  -1.1234  -1.0241
    -0.9862  -0.9582  -0.8380  -0.8069  -0.6417  -0.4564  -0.3737  -0.2448
     0.3411   1.6136   3.3164   5.1124   6.5423   8.1588   8.1728   8.5296

          k = 0.1250 0.3750 0.0000 ( 11868 PWs)   bands (ev):

    -3.2787  -3.2785  -3.0400  -3.0019  -2.6794  -2.6102  -2.5406  -2.4315
    -2.1718  -2.1490  -2.1193  -2.0348  -1.9971  -1.8527  -1.8263  -1.7209
    -1.6483  -1.6282  -1.4469  -1.4199  -1.2297  -1.1894  -1.0522  -0.7928
    -0.7400  -0.7219  -0.4989  -0.4814  -0.3999  -0.3967   0.2618   0.5854
     1.4904   2.8800   4.5195   5.2244   6.1509   6.4279   7.4990   8.1260

          k = 0.1250-0.5000 0.0000 ( 11862 PWs)   bands (ev):

    -3.3557  -3.3557  -3.0724  -3.0723  -2.6233  -2.6231  -2.3636  -2.3635
    -2.2606  -2.2605  -2.0878  -2.0876  -1.9883  -1.9882  -1.7961  -1.7957
    -1.6814  -1.6811  -1.2588  -1.2588  -1.1621  -1.1619  -0.7795  -0.7794
    -0.6759  -0.6758  -0.4146  -0.4143  -0.3032  -0.3031   2.4220   2.4220
     2.7628   2.7630   3.3724   3.3728   5.6749   5.6752   7.3688   7.3688

          k = 0.1250-0.3750 0.0000 ( 11868 PWs)   bands (ev):

    -3.2787  -3.2785  -3.0400  -3.0019  -2.6794  -2.6102  -2.5406  -2.4315
    -2.1718  -2.1490  -2.1193  -2.0348  -1.9971  -1.8527  -1.8263  -1.7209
    -1.6483  -1.6282  -1.4469  -1.4199  -1.2297  -1.1894  -1.0522  -0.7928
    -0.7400  -0.7219  -0.4989  -0.4814  -0.3999  -0.3967   0.2618   0.5854
     1.4904   2.8800   4.5195   5.2244   6.1509   6.4279   7.4990   8.1260

          k = 0.1250-0.2500 0.0000 ( 11878 PWs)   bands (ev):

    -3.5125  -3.2354  -3.0164  -3.0127  -2.7715  -2.7351  -2.6773  -2.5079
    -2.3641  -2.1620  -2.1236  -1.9845  -1.8934  -1.8772  -1.7912  -1.7571
    -1.7486  -1.6022  -1.5026  -1.4786  -1.4292  -1.3694  -1.1234  -1.0241
    -0.9862  -0.9582  -0.8380  -0.8069  -0.6417  -0.4564  -0.3737  -0.2448
     0.3411   1.6136   3.3164   5.1124   6.5423   8.1588   8.1729   8.5296

          k = 0.1250-0.1250 0.0000 ( 11887 PWs)   bands (ev):

    -4.2060  -3.6286  -3.2666  -3.1826  -3.0535  -3.0137  -2.7733  -2.7243
    -2.5983  -2.4557  -2.3259  -1.9732  -1.9487  -1.8707  -1.8689  -1.8145
    -1.7297  -1.5494  -1.3400  -1.3020  -1.2621  -1.2610  -1.1555  -1.0478
    -0.8956  -0.8661  -0.7490  -0.6674  -0.5748  -0.5677  -0.4627  -0.2279
    -0.1788   0.7139   2.2949   4.0083   5.2307   7.3045   7.3516   7.9986

          k = 0.2500-0.0000 0.0000 ( 11877 PWs)   bands (ev):

    -3.7635  -3.5015  -3.2695  -3.2210  -2.9241  -2.9223  -2.7581  -2.5137
    -2.2019  -2.0754  -1.9648  -1.8566  -1.8310  -1.8274  -1.8095  -1.7126
    -1.6422  -1.6381  -1.4781  -1.4670  -1.3781  -1.3154  -1.1645  -1.1251
    -0.9110  -0.8504  -0.8349  -0.7631  -0.5686  -0.3829  -0.2775  -0.2593
    -0.2554   1.1482   2.9269   4.7403   6.1501   7.8832   7.8936   8.1772

          k = 0.2500 0.1250 0.0000 ( 11878 PWs)   bands (ev):

    -3.5125  -3.2354  -3.0164  -3.0127  -2.7715  -2.7351  -2.6773  -2.5079
    -2.3641  -2.1620  -2.1236  -1.9845  -1.8934  -1.8772  -1.7912  -1.7571
    -1.7486  -1.6022  -1.5026  -1.4786  -1.4292  -1.3694  -1.1234  -1.0241
    -0.9862  -0.9582  -0.8380  -0.8069  -0.6417  -0.4564  -0.3737  -0.2448
     0.3411   1.6136   3.3164   5.1124   6.5423   8.1589   8.1728   8.5296

          k = 0.2500 0.2500 0.0000 ( 11857 PWs)   bands (ev):

    -3.1003  -2.8535  -2.7861  -2.7179  -2.6451  -2.6010  -2.5351  -2.4748
    -2.3927  -2.3458  -2.3371  -2.3366  -2.1140  -1.8986  -1.8979  -1.7034
    -1.4712  -1.4704  -1.3199  -1.2992  -1.2303  -1.2136  -1.1502  -1.0536
    -1.0305  -1.0061  -0.8664  -0.8588  -0.5146  -0.4972  -0.1935   0.2344
     1.2629   2.6156   4.2919   6.0912   7.6000   8.8821   8.9430   9.0372

          k = 0.2500 0.3750 0.0000 ( 11826 PWs)   bands (ev):

    -3.0749  -3.0529  -2.9993  -2.9341  -2.8640  -2.8238  -2.6880  -2.6254
    -2.4363  -2.3526  -2.2530  -2.1558  -1.8526  -1.8030  -1.7628  -1.5172
    -1.3760  -1.3327  -1.2761  -1.2518  -1.1604  -1.0797  -0.9925  -0.8324
    -0.8188  -0.5705  -0.4976  -0.4536  -0.3973  -0.2519   0.7703   1.5538
     2.6745   4.0581   5.6769   6.0261   6.8164   7.3779   8.0916   8.9776

          k = 0.2500-0.5000 0.0000 ( 11818 PWs)   bands (ev):

    -3.1265  -3.1264  -3.1160  -3.1157  -2.9295  -2.9294  -2.7340  -2.7340
    -2.4549  -2.4546  -2.2685  -2.2678  -1.6394  -1.6393  -1.5078  -1.5077
    -1.3731  -1.3730  -1.2813  -1.2807  -1.1315  -1.1311  -0.7674  -0.7674
    -0.5141  -0.5140  -0.2966  -0.2965  -0.2545  -0.2543   3.1244   3.1245
     3.8106   3.8107   4.7692   4.7694   6.3683   6.3684   7.9926   7.9926

          k = 0.2500-0.3750 0.0000 ( 11826 PWs)   bands (ev):

    -3.0749  -3.0529  -2.9993  -2.9341  -2.8640  -2.8238  -2.6880  -2.6254
    -2.4363  -2.3526  -2.2530  -2.1558  -1.8526  -1.8030  -1.7628  -1.5172
    -1.3760  -1.3327  -1.2761  -1.2518  -1.1604  -1.0797  -0.9925  -0.8324
    -0.8188  -0.5705  -0.4976  -0.4536  -0.3973  -0.2519   0.7703   1.5538
     2.6745   4.0581   5.6769   6.0261   6.8164   7.3779   8.0916   8.9776

          k = 0.2500-0.2500 0.0000 ( 11857 PWs)   bands (ev):

    -3.1003  -2.8535  -2.7861  -2.7179  -2.6451  -2.6010  -2.5351  -2.4748
    -2.3927  -2.3458  -2.3371  -2.3366  -2.1140  -1.8986  -1.8979  -1.7034
    -1.4712  -1.4704  -1.3199  -1.2992  -1.2303  -1.2136  -1.1502  -1.0536
    -1.0305  -1.0061  -0.8664  -0.8588  -0.5146  -0.4972  -0.1935   0.2344
     1.2629   2.6156   4.2919   6.0912   7.6000   8.8821   8.9430   9.0372

          k = 0.2500-0.1250 0.0000 ( 11878 PWs)   bands (ev):

    -3.5125  -3.2354  -3.0164  -3.0127  -2.7715  -2.7351  -2.6773  -2.5079
    -2.3641  -2.1620  -2.1236  -1.9845  -1.8934  -1.8772  -1.7912  -1.7571
    -1.7486  -1.6022  -1.5026  -1.4786  -1.4292  -1.3694  -1.1234  -1.0241
    -0.9862  -0.9582  -0.8380  -0.8069  -0.6417  -0.4564  -0.3737  -0.2448
     0.3411   1.6136   3.3164   5.1124   6.5423   8.1588   8.1729   8.5296

          k = 0.3750-0.0000 0.0000 ( 11873 PWs)   bands (ev):

    -3.4771  -3.4616  -3.2163  -3.1406  -2.8121  -2.7037  -2.3487  -2.2979
    -2.1670  -2.0614  -2.0100  -1.9455  -1.9394  -1.9005  -1.7501  -1.7121
    -1.6932  -1.6910  -1.3517  -1.3191  -1.2965  -1.0351  -0.9835  -0.7647
    -0.7500  -0.5723  -0.5146  -0.4969  -0.3324  -0.3208   0.1007   0.1357
     0.8218   2.3368   4.0361   4.8637   5.9107   6.1064   7.3139   7.8513

          k = 0.3750 0.1250 0.0000 ( 11868 PWs)   bands (ev):

    -3.2787  -3.2785  -3.0400  -3.0019  -2.6794  -2.6102  -2.5406  -2.4315
    -2.1718  -2.1490  -2.1193  -2.0348  -1.9971  -1.8527  -1.8263  -1.7209
    -1.6483  -1.6282  -1.4469  -1.4199  -1.2297  -1.1894  -1.0522  -0.7928
    -0.7400  -0.7219  -0.4989  -0.4814  -0.3999  -0.3967   0.2618   0.5854
     1.4904   2.8800   4.5195   5.2244   6.1509   6.4279   7.4990   8.1260

          k = 0.3750 0.2500 0.0000 ( 11826 PWs)   bands (ev):

    -3.0749  -3.0529  -2.9993  -2.9341  -2.8640  -2.8238  -2.6880  -2.6254
    -2.4363  -2.3526  -2.2530  -2.1558  -1.8526  -1.8030  -1.7628  -1.5172
    -1.3760  -1.3327  -1.2761  -1.2518  -1.1604  -1.0797  -0.9925  -0.8324
    -0.8188  -0.5705  -0.4976  -0.4536  -0.3973  -0.2519   0.7703   1.5538
     2.6745   4.0581   5.6769   6.0261   6.8164   7.3779   8.0916   8.9776

          k = 0.3750 0.3750 0.0000 ( 11799 PWs)   bands (ev):

    -3.3234  -3.2919  -3.2480  -3.2110  -3.0096  -2.9516  -2.9352  -2.8962
    -2.5032  -2.4980  -2.4498  -2.4135  -1.8894  -1.8085  -1.3238  -1.2572
    -1.0174  -0.9354  -0.8079  -0.8007  -0.7272  -0.7263  -0.6819  -0.5480
    -0.4792  -0.4691  -0.4535  -0.4084  -0.3005  -0.1695   2.0047   2.9667
     4.2086   5.6090   6.0968   7.0799   7.1726   8.4983   8.8005   9.6302

          k = 0.3750-0.5000 0.0000 ( 11750 PWs)   bands (ev):

    -3.4289  -3.4288  -3.3370  -3.3370  -3.1013  -3.1010  -3.0107  -3.0107
    -2.6320  -2.6314  -2.4736  -2.4733  -1.7674  -1.7672  -1.1301  -1.1300
    -0.9475  -0.9474  -0.7454  -0.7452  -0.5717  -0.5716  -0.4976  -0.4974
    -0.3178  -0.3177  -0.2261  -0.2257  -0.1057  -0.1052   4.0790   4.0790
     5.0322   5.0322   6.3160   6.3161   7.7017   7.7017   9.1975   9.1975

          k = 0.3750-0.3750 0.0000 ( 11799 PWs)   bands (ev):

    -3.3234  -3.2919  -3.2480  -3.2110  -3.0096  -2.9516  -2.9352  -2.8962
    -2.5032  -2.4980  -2.4498  -2.4135  -1.8894  -1.8085  -1.3238  -1.2572
    -1.0174  -0.9354  -0.8079  -0.8007  -0.7272  -0.7263  -0.6819  -0.5480
    -0.4792  -0.4691  -0.4535  -0.4084  -0.3005  -0.1695   2.0047   2.9667
     4.2086   5.6090   6.0968   7.0799   7.1726   8.4983   8.8005   9.6302

          k = 0.3750-0.2500 0.0000 ( 11826 PWs)   bands (ev):

    -3.0749  -3.0529  -2.9993  -2.9341  -2.8640  -2.8238  -2.6880  -2.6254
    -2.4363  -2.3526  -2.2530  -2.1558  -1.8526  -1.8030  -1.7628  -1.5172
    -1.3760  -1.3327  -1.2761  -1.2518  -1.1604  -1.0797  -0.9925  -0.8324
    -0.8188  -0.5705  -0.4976  -0.4536  -0.3973  -0.2519   0.7703   1.5538
     2.6745   4.0581   5.6769   6.0261   6.8164   7.3779   8.0916   8.9776

          k = 0.3750-0.1250 0.0000 ( 11868 PWs)   bands (ev):

    -3.2787  -3.2785  -3.0400  -3.0019  -2.6794  -2.6102  -2.5406  -2.4315
    -2.1718  -2.1490  -2.1193  -2.0348  -1.9971  -1.8527  -1.8263  -1.7209
    -1.6483  -1.6282  -1.4469  -1.4199  -1.2297  -1.1894  -1.0522  -0.7928
    -0.7400  -0.7219  -0.4989  -0.4814  -0.3999  -0.3967   0.2618   0.5854
     1.4904   2.8800   4.5195   5.2244   6.1509   6.4279   7.4990   8.1260

          k =-0.5000 0.0000 0.0000 ( 11796 PWs)   bands (ev):

    -3.5292  -3.5292  -3.1829  -3.1829  -2.6434  -2.6432  -2.2054  -2.2053
    -2.1872  -2.1871  -2.0622  -2.0620  -2.0156  -2.0156  -1.7723  -1.7721
    -1.6139  -1.6139  -1.3896  -1.3892  -0.9464  -0.9461  -0.8359  -0.8357
    -0.5457  -0.5457  -0.4181  -0.4181  -0.3483  -0.3483   2.1408   2.1409
     2.2255   2.2257   2.7827   2.7833   5.4530   5.4533   7.1949   7.1949

          k =-0.5000 0.1250 0.0000 ( 11862 PWs)   bands (ev):

    -3.3557  -3.3557  -3.0724  -3.0723  -2.6233  -2.6231  -2.3636  -2.3635
    -2.2606  -2.2605  -2.0878  -2.0876  -1.9883  -1.9882  -1.7961  -1.7957
    -1.6814  -1.6811  -1.2588  -1.2588  -1.1621  -1.1619  -0.7795  -0.7794
    -0.6759  -0.6758  -0.4146  -0.4143  -0.3032  -0.3031   2.4220   2.4220
     2.7628   2.7630   3.3724   3.3729   5.6749   5.6752   7.3688   7.3688

          k =-0.5000 0.2500 0.0000 ( 11818 PWs)   bands (ev):

    -3.1265  -3.1264  -3.1160  -3.1157  -2.9295  -2.9294  -2.7340  -2.7340
    -2.4549  -2.4546  -2.2685  -2.2678  -1.6394  -1.6393  -1.5078  -1.5077
    -1.3731  -1.3730  -1.2813  -1.2807  -1.1315  -1.1311  -0.7674  -0.7674
    -0.5141  -0.5140  -0.2966  -0.2965  -0.2545  -0.2543   3.1244   3.1245
     3.8106   3.8107   4.7692   4.7694   6.3683   6.3684   7.9926   7.9926

          k =-0.5000 0.3750 0.0000 ( 11750 PWs)   bands (ev):

    -3.4289  -3.4288  -3.3370  -3.3370  -3.1013  -3.1010  -3.0107  -3.0107
    -2.6320  -2.6314  -2.4736  -2.4733  -1.7674  -1.7672  -1.1301  -1.1300
    -0.9475  -0.9474  -0.7454  -0.7452  -0.5717  -0.5716  -0.4976  -0.4974
    -0.3178  -0.3177  -0.2261  -0.2257  -0.1057  -0.1052   4.0790   4.0790
     5.0322   5.0322   6.3160   6.3161   7.7017   7.7017   9.1975   9.1975

          k =-0.5000-0.5000 0.0000 ( 11668 PWs)   bands (ev):

    -3.5699  -3.5699  -3.4319  -3.4319  -3.2486  -3.2484  -3.0803  -3.0803
    -2.7863  -2.7856  -2.4813  -2.4813  -1.7388  -1.7388  -0.9720  -0.9720
    -0.9157  -0.9155  -0.6357  -0.6356  -0.4002  -0.4001  -0.3319  -0.3319
    -0.1315  -0.1313  -0.0605  -0.0599   0.1112   0.1119   4.7247   4.7247
     5.8760   5.8760   7.4424   7.4424   9.1661   9.1661   9.3242   9.3243

     the Fermi energy is     2.6762 ev

!    total energy              =    -505.73278007 Ry
     estimated scf accuracy    <       0.00000008 Ry
     smearing contrib. (-TS)   =      -0.00142278 Ry
     internal energy E=F+TS    =    -505.73135729 Ry

     The total energy is F=E-TS. E is the sum of the following terms:
     one-electron contribution =   -6205.06834285 Ry
     hartree contribution      =    3151.73527252 Ry
     xc contribution           =    -133.95024657 Ry
     ewald contribution        =    2681.72361055 Ry
     DFT-D3 Dispersion         =      -0.17165093 Ry

     convergence has been achieved in   4 iterations

     negative rho (up, down):  1.299E-05 0.000E+00

     Forces acting on atoms (cartesian axes, Ry/au):

     atom    1 type  1   force =     0.00000078   -0.00000191    0.00149745
     atom    2 type  1   force =    -0.00000028    0.00000035    0.00082464
     atom    3 type  1   force =    -0.00000105   -0.00000056   -0.00080233
     atom    4 type  1   force =     0.00000079    0.00000098    0.00073544
     atom    5 type  1   force =     0.00000027    0.00000079   -0.00097454
     atom    6 type  1   force =    -0.00000050    0.00000036   -0.00128067
     The non-local contrib.  to forces
     atom    1 type  1   force =     0.00000110   -0.00000103   -0.02838299
     atom    2 type  1   force =    -0.00000010    0.00000058   -0.09671727
     atom    3 type  1   force =    -0.00000087   -0.00000077    0.00209007
     atom    4 type  1   force =     0.00000083    0.00000135   -0.00184686
     atom    5 type  1   force =    -0.00000003    0.00000154    0.09679617
     atom    6 type  1   force =    -0.00000051    0.00000070    0.02878868
     The ionic contribution  to forces
     atom    1 type  1   force =     0.00000000    0.00000000  -89.97995994
     atom    2 type  1   force =    -0.00000000   -0.00000000 -147.95317674
     atom    3 type  1   force =     0.00000054    0.00000092   29.98125122
     atom    4 type  1   force =    -0.00000001   -0.00000001  -29.98638402
     atom    5 type  1   force =     0.00000085    0.00000150  147.95483106
     atom    6 type  1   force =    -0.00000139   -0.00000241   89.98343842
     The local contribution  to forces
     atom    1 type  1   force =     0.00000056    0.00000155   90.00500620
     atom    2 type  1   force =     0.00000040   -0.00000008  148.04027299
     atom    3 type  1   force =    -0.00000002   -0.00000170  -29.98408320
     atom    4 type  1   force =    -0.00000104   -0.00000030   29.98888360
     atom    5 type  1   force =    -0.00000179   -0.00000217 -148.04257487
     atom    6 type  1   force =     0.00000157    0.00000294  -90.00962672
     The core correction contribution to forces
     atom    1 type  1   force =     0.00000003    0.00000010    0.00001404
     atom    2 type  1   force =     0.00000002   -0.00000001    0.00615157
     atom    3 type  1   force =     0.00000004   -0.00000004    0.00014711
     atom    4 type  1   force =    -0.00000007   -0.00000001   -0.00012985
     atom    5 type  1   force =    -0.00000006   -0.00000004   -0.00614891
     atom    6 type  1   force =    -0.00000003    0.00000001   -0.00004376
     The Hubbard contrib.    to forces
     atom    1 type  1   force =     0.00000000    0.00000000    0.00000000
     atom    2 type  1   force =     0.00000000    0.00000000    0.00000000
     atom    3 type  1   force =     0.00000000    0.00000000    0.00000000
     atom    4 type  1   force =     0.00000000    0.00000000    0.00000000
     atom    5 type  1   force =     0.00000000    0.00000000    0.00000000
     atom    6 type  1   force =     0.00000000    0.00000000    0.00000000
     The SCF correction term to forces
     atom    1 type  1   force =    -0.00000000   -0.00000000   -0.00000000
     atom    2 type  1   force =    -0.00000000    0.00000000    0.00000000
     atom    3 type  1   force =    -0.00000000    0.00000000    0.00000000
     atom    4 type  1   force =     0.00000000    0.00000000   -0.00000000
     atom    5 type  1   force =     0.00000154    0.00000024    0.00045063
     atom    6 type  1   force =     0.00000009   -0.00000059    0.00140451

     DFT-D3 dispersion contribution to forces:
     atom    1 type  1   force =    -0.00000000   -0.00000000    0.00511249
     atom    2 type  1   force =     0.00000000    0.00000000    0.00420858
     atom    3 type  1   force =    -0.00000000   -0.00000000   -0.00076103
     atom    4 type  1   force =     0.00000000    0.00000000    0.00076743
     atom    5 type  1   force =    -0.00000000   -0.00000000   -0.00420716
     atom    6 type  1   force =     0.00000000    0.00000001   -0.00512031

     Total force =     0.001609     Total SCF correction =     0.001475
     SCF correction compared to forces is large: reduce conv_thr to get better values


     Computing stress (Cartesian axis) and pressure


     negative rho (up, down):  1.299E-05 0.000E+00
          total   stress  (Ry/bohr**3)                   (kbar)     P=      -16.36
  -0.00012882   0.00000000  -0.00000000          -18.95        0.00       -0.00
   0.00000000  -0.00012882   0.00000000            0.00      -18.95        0.00
  -0.00000000   0.00000000  -0.00007598           -0.00        0.00      -11.18

     Energy error            =      3.2E-06 Ry
     Gradient error          =      1.3E-03 Ry/Bohr

     number of scf cycles    =   2
     number of bfgs steps    =   1

     energy             old  =    -505.7327768438 Ry
     energy             new  =    -505.7327800703 Ry

     CASE: energy            _new < energy            _old


     WARNING: bfgs curvature condition failed, Theta= 0.895
     new trust radius        =       0.0017421273 bohr
     new conv_thr            =       0.0000000100 Ry


ATOMIC_POSITIONS (angstrom)
Ag            2.1766636603        0.7255545534       12.0521781795    0   0   0
Ag            0.7255545534        2.1766636603       10.0000000000    0   0   0
Ag            2.1766636603        0.7255545534       16.1565345384    0   0   0
Ag            0.7255545534        2.1766636603       14.1043563589    0   0   0
Ag            2.1766635667        0.7255545099       20.2598576806
Ag            0.7255546903        2.1766644649       18.2069527385



     Writing config-only to output data dir ./Ag_100/Ag_100.save/
     NEW-OLD atomic charge density approx. for the potential

     negative rho (up, down):  1.306E-05 0.000E+00

     total cpu time spent up to now is       36.6 secs

     per-process dynamical memory:   185.3 Mb

     Self-consistent Calculation

     iteration #  1     ecut=    55.00 Ry     beta= 0.30
     Davidson diagonalization with overlap
     ethr =  1.00E-06,  avg # of iterations =  2.0

     Threshold (ethr) on eigenvalues was too large:
     Diagonalizing with lowered threshold

     Davidson diagonalization with overlap
     ethr =  5.01E-08,  avg # of iterations =  1.0

     negative rho (up, down):  1.305E-05 0.000E+00

     total cpu time spent up to now is       37.4 secs

     total energy              =    -505.73276861 Ry
     estimated scf accuracy    <       0.00003151 Ry

     iteration #  2     ecut=    55.00 Ry     beta= 0.30
     Davidson diagonalization with overlap
     ethr =  4.77E-08,  avg # of iterations =  2.1

     negative rho (up, down):  1.305E-05 0.000E+00

     total cpu time spent up to now is       37.9 secs

     total energy              =    -505.73270787 Ry
     estimated scf accuracy    <       0.00282742 Ry

     iteration #  3     ecut=    55.00 Ry     beta= 0.30
     Davidson diagonalization with overlap
     ethr =  4.77E-08,  avg # of iterations =  2.0

     negative rho (up, down):  1.305E-05 0.000E+00

     total cpu time spent up to now is       38.3 secs

     total energy              =    -505.73278128 Ry
     estimated scf accuracy    <       0.00004517 Ry

     iteration #  4     ecut=    55.00 Ry     beta= 0.30
     Davidson diagonalization with overlap
     ethr =  4.77E-08,  avg # of iterations =  1.1

     negative rho (up, down):  1.304E-05 0.000E+00

     total cpu time spent up to now is       38.8 secs

     total energy              =    -505.73278366 Ry
     estimated scf accuracy    <       0.00000029 Ry

     iteration #  5     ecut=    55.00 Ry     beta= 0.30
     Davidson diagonalization with overlap
     ethr =  4.33E-10,  avg # of iterations =  4.2

     negative rho (up, down):  1.303E-05 0.000E+00

     total cpu time spent up to now is       39.2 secs

     End of self-consistent calculation

          k = 0.0000 0.0000 0.0000 ( 11951 PWs)   bands (ev):

    -4.8076  -4.1552  -3.5884  -3.4770  -3.4356  -3.2711  -3.1323  -2.9852
    -2.9190  -2.5625  -2.3088  -2.1360  -1.9903  -1.9903  -1.7298  -1.7298
    -1.2978  -1.2978  -1.2929  -1.2728  -1.1318  -1.0283  -0.9170  -0.8243
    -0.8243  -0.7056  -0.4934  -0.4365  -0.4365  -0.3729  -0.3729  -0.3217
    -0.1708  -0.1708   1.3149   3.0551   4.0534   6.7248   6.8050   7.4133

          k = 0.0000 0.1250 0.0000 ( 11903 PWs)   bands (ev):

    -4.5035  -3.8989  -3.4553  -3.3064  -3.2971  -3.0938  -2.9806  -2.9307
    -2.6756  -2.4158  -2.2354  -2.0380  -2.0184  -1.9339  -1.8509  -1.7404
    -1.6131  -1.4278  -1.3574  -1.2171  -1.1450  -1.1007  -1.0089  -0.9146
    -0.8631  -0.8290  -0.7005  -0.6058  -0.5465  -0.4572  -0.4498  -0.2834
    -0.1763   0.2463   1.8501   3.5607   4.6942   7.0144   7.0793   7.7054

          k = 0.0000 0.2500 0.0000 ( 11877 PWs)   bands (ev):

    -3.7640  -3.5020  -3.2700  -3.2213  -2.9241  -2.9223  -2.7585  -2.5140
    -2.2020  -2.0753  -1.9650  -1.8566  -1.8314  -1.8273  -1.8100  -1.7127
    -1.6425  -1.6382  -1.4781  -1.4673  -1.3782  -1.3156  -1.1644  -1.1250
    -0.9111  -0.8503  -0.8350  -0.7633  -0.5688  -0.3830  -0.2774  -0.2592
    -0.2554   1.1482   2.9272   4.7405   6.1506   7.8832   7.8937   8.1770

          k = 0.0000 0.3750 0.0000 ( 11873 PWs)   bands (ev):

    -3.4775  -3.4621  -3.2167  -3.1411  -2.8121  -2.7037  -2.3489  -2.2980
    -2.1670  -2.0614  -2.0099  -1.9460  -1.9399  -1.9008  -1.7503  -1.7125
    -1.6933  -1.6915  -1.3515  -1.3193  -1.2963  -1.0352  -0.9837  -0.7646
    -0.7501  -0.5724  -0.5147  -0.4970  -0.3323  -0.3207   0.1005   0.1357
     0.8220   2.3367   4.0362   4.8635   5.9107   6.1066   7.3145   7.8518

          k = 0.0000-0.5000 0.0000 ( 11796 PWs)   bands (ev):

    -3.5297  -3.5296  -3.1833  -3.1833  -2.6433  -2.6431  -2.2057  -2.2055
    -2.1875  -2.1870  -2.0622  -2.0621  -2.0161  -2.0160  -1.7727  -1.7724
    -1.6142  -1.6142  -1.3895  -1.3890  -0.9466  -0.9463  -0.8362  -0.8358
    -0.5459  -0.5458  -0.4182  -0.4180  -0.3482  -0.3482   2.1407   2.1408
     2.2254   2.2255   2.7827   2.7832   5.4531   5.4531   7.1956   7.1956

          k = 0.1250-0.0000 0.0000 ( 11903 PWs)   bands (ev):

    -4.5035  -3.8989  -3.4553  -3.3064  -3.2971  -3.0938  -2.9806  -2.9307
    -2.6756  -2.4158  -2.2354  -2.0380  -2.0184  -1.9339  -1.8509  -1.7404
    -1.6131  -1.4278  -1.3574  -1.2171  -1.1450  -1.1007  -1.0089  -0.9146
    -0.8631  -0.8290  -0.7005  -0.6058  -0.5465  -0.4572  -0.4498  -0.2834
    -0.1763   0.2463   1.8501   3.5607   4.6942   7.0144   7.0793   7.7054

          k = 0.1250 0.1250 0.0000 ( 11887 PWs)   bands (ev):

    -4.2065  -3.6290  -3.2670  -3.1830  -3.0539  -3.0140  -2.7733  -2.7242
    -2.5983  -2.4560  -2.3263  -1.9734  -1.9487  -1.8709  -1.8692  -1.8147
    -1.7298  -1.5496  -1.3398  -1.3022  -1.2622  -1.2608  -1.1557  -1.0477
    -0.8956  -0.8663  -0.7491  -0.6675  -0.5749  -0.5677  -0.4629  -0.2280
    -0.1787   0.7141   2.2952   4.0085   5.2312   7.3044   7.3517   7.9985

          k = 0.1250 0.2500 0.0000 ( 11878 PWs)   bands (ev):

    -3.5130  -3.2358  -3.0170  -3.0130  -2.7718  -2.7352  -2.6774  -2.5082
    -2.3644  -2.1619  -2.1241  -1.9846  -1.8936  -1.8774  -1.7916  -1.7573
    -1.7485  -1.6023  -1.5026  -1.4786  -1.4291  -1.3695  -1.1235  -1.0241
    -0.9862  -0.9583  -0.8382  -0.8068  -0.6419  -0.4564  -0.3738  -0.2447
     0.3412   1.6136   3.3167   5.1127   6.5428   8.1589   8.1728   8.5294

          k = 0.1250 0.3750 0.0000 ( 11868 PWs)   bands (ev):

    -3.2791  -3.2790  -3.0404  -3.0023  -2.6795  -2.6103  -2.5408  -2.4318
    -2.1720  -2.1491  -2.1196  -2.0350  -1.9972  -1.8528  -1.8265  -1.7211
    -1.6483  -1.6282  -1.4472  -1.4201  -1.2297  -1.1896  -1.0523  -0.7929
    -0.7400  -0.7220  -0.4990  -0.4816  -0.3998  -0.3967   0.2617   0.5853
     1.4906   2.8799   4.5197   5.2242   6.1509   6.4280   7.4996   8.1265

          k = 0.1250-0.5000 0.0000 ( 11862 PWs)   bands (ev):

    -3.3561  -3.3561  -3.0728  -3.0726  -2.6234  -2.6231  -2.3638  -2.3637
    -2.2610  -2.2609  -2.0880  -2.0877  -1.9884  -1.9884  -1.7962  -1.7957
    -1.6815  -1.6810  -1.2591  -1.2590  -1.1624  -1.1618  -0.7796  -0.7796
    -0.6761  -0.6758  -0.4146  -0.4142  -0.3033  -0.3030   2.4218   2.4219
     2.7626   2.7629   3.3724   3.3729   5.6750   5.6751   7.3694   7.3695

          k = 0.1250-0.3750 0.0000 ( 11868 PWs)   bands (ev):

    -3.2791  -3.2790  -3.0404  -3.0023  -2.6795  -2.6103  -2.5408  -2.4318
    -2.1720  -2.1491  -2.1196  -2.0350  -1.9972  -1.8528  -1.8265  -1.7211
    -1.6483  -1.6282  -1.4472  -1.4201  -1.2297  -1.1896  -1.0523  -0.7929
    -0.7400  -0.7220  -0.4990  -0.4816  -0.3998  -0.3967   0.2617   0.5853
     1.4906   2.8799   4.5197   5.2242   6.1509   6.4280   7.4996   8.1265

          k = 0.1250-0.2500 0.0000 ( 11878 PWs)   bands (ev):

    -3.5130  -3.2358  -3.0170  -3.0130  -2.7718  -2.7352  -2.6774  -2.5082
    -2.3644  -2.1619  -2.1241  -1.9846  -1.8936  -1.8774  -1.7916  -1.7573
    -1.7485  -1.6023  -1.5026  -1.4786  -1.4291  -1.3695  -1.1235  -1.0241
    -0.9862  -0.9583  -0.8382  -0.8068  -0.6419  -0.4564  -0.3738  -0.2447
     0.3412   1.6136   3.3167   5.1127   6.5428   8.1589   8.1728   8.5294

          k = 0.1250-0.1250 0.0000 ( 11887 PWs)   bands (ev):

    -4.2065  -3.6290  -3.2670  -3.1830  -3.0539  -3.0140  -2.7733  -2.7242
    -2.5983  -2.4560  -2.3263  -1.9734  -1.9487  -1.8709  -1.8692  -1.8147
    -1.7298  -1.5496  -1.3398  -1.3022  -1.2622  -1.2608  -1.1557  -1.0477
    -0.8956  -0.8663  -0.7491  -0.6675  -0.5749  -0.5677  -0.4629  -0.2280
    -0.1787   0.7141   2.2952   4.0085   5.2312   7.3044   7.3517   7.9985

          k = 0.2500-0.0000 0.0000 ( 11877 PWs)   bands (ev):

    -3.7640  -3.5020  -3.2700  -3.2213  -2.9241  -2.9223  -2.7585  -2.5140
    -2.2020  -2.0753  -1.9650  -1.8566  -1.8314  -1.8273  -1.8100  -1.7127
    -1.6425  -1.6382  -1.4781  -1.4673  -1.3782  -1.3156  -1.1644  -1.1250
    -0.9111  -0.8503  -0.8350  -0.7633  -0.5688  -0.3830  -0.2774  -0.2592
    -0.2554   1.1482   2.9272   4.7405   6.1506   7.8832   7.8937   8.1770

          k = 0.2500 0.1250 0.0000 ( 11878 PWs)   bands (ev):

    -3.5130  -3.2358  -3.0170  -3.0130  -2.7718  -2.7352  -2.6774  -2.5082
    -2.3644  -2.1619  -2.1241  -1.9846  -1.8936  -1.8774  -1.7916  -1.7573
    -1.7485  -1.6023  -1.5026  -1.4786  -1.4291  -1.3695  -1.1235  -1.0241
    -0.9862  -0.9583  -0.8382  -0.8068  -0.6419  -0.4564  -0.3738  -0.2447
     0.3412   1.6136   3.3167   5.1127   6.5428   8.1589   8.1728   8.5294

          k = 0.2500 0.2500 0.0000 ( 11857 PWs)   bands (ev):

    -3.1008  -2.8539  -2.7866  -2.7183  -2.6454  -2.6014  -2.5355  -2.4751
    -2.3926  -2.3460  -2.3377  -2.3366  -2.1141  -1.8988  -1.8980  -1.7034
    -1.4711  -1.4706  -1.3198  -1.2993  -1.2303  -1.2134  -1.1501  -1.0537
    -1.0308  -1.0062  -0.8667  -0.8588  -0.5147  -0.4973  -0.1933   0.2344
     1.2631   2.6156   4.2922   6.0916   7.6004   8.8819   8.9432   9.0372

          k = 0.2500 0.3750 0.0000 ( 11826 PWs)   bands (ev):

    -3.0754  -3.0533  -2.9997  -2.9344  -2.8645  -2.8242  -2.6883  -2.6257
    -2.4363  -2.3527  -2.2530  -2.1559  -1.8528  -1.8033  -1.7629  -1.5174
    -1.3760  -1.3327  -1.2763  -1.2519  -1.1605  -1.0797  -0.9928  -0.8325
    -0.8189  -0.5708  -0.4975  -0.4535  -0.3975  -0.2517   0.7701   1.5538
     2.6748   4.0581   5.6772   6.0258   6.8164   7.3782   8.0920   8.9779

          k = 0.2500-0.5000 0.0000 ( 11818 PWs)   bands (ev):

    -3.1269  -3.1268  -3.1165  -3.1160  -2.9299  -2.9298  -2.7343  -2.7343
    -2.4549  -2.4546  -2.2684  -2.2678  -1.6397  -1.6394  -1.5081  -1.5077
    -1.3732  -1.3730  -1.2813  -1.2809  -1.1318  -1.1311  -0.7676  -0.7674
    -0.5142  -0.5141  -0.2966  -0.2964  -0.2545  -0.2543   3.1242   3.1243
     3.8104   3.8107   4.7693   4.7696   6.3683   6.3684   7.9931   7.9932

          k = 0.2500-0.3750 0.0000 ( 11826 PWs)   bands (ev):

    -3.0754  -3.0533  -2.9997  -2.9344  -2.8645  -2.8242  -2.6883  -2.6257
    -2.4363  -2.3527  -2.2530  -2.1559  -1.8528  -1.8033  -1.7629  -1.5174
    -1.3760  -1.3327  -1.2763  -1.2519  -1.1605  -1.0797  -0.9928  -0.8325
    -0.8189  -0.5708  -0.4975  -0.4535  -0.3975  -0.2517   0.7701   1.5538
     2.6748   4.0581   5.6772   6.0258   6.8164   7.3782   8.0920   8.9779

          k = 0.2500-0.2500 0.0000 ( 11857 PWs)   bands (ev):

    -3.1008  -2.8539  -2.7866  -2.7183  -2.6454  -2.6014  -2.5355  -2.4751
    -2.3926  -2.3460  -2.3377  -2.3366  -2.1141  -1.8988  -1.8980  -1.7034
    -1.4711  -1.4706  -1.3198  -1.2993  -1.2303  -1.2134  -1.1501  -1.0537
    -1.0308  -1.0062  -0.8667  -0.8588  -0.5147  -0.4973  -0.1933   0.2344
     1.2631   2.6156   4.2922   6.0916   7.6004   8.8819   8.9432   9.0372

          k = 0.2500-0.1250 0.0000 ( 11878 PWs)   bands (ev):

    -3.5130  -3.2358  -3.0170  -3.0130  -2.7718  -2.7352  -2.6774  -2.5082
    -2.3644  -2.1619  -2.1241  -1.9846  -1.8936  -1.8774  -1.7916  -1.7573
    -1.7485  -1.6023  -1.5026  -1.4786  -1.4291  -1.3695  -1.1235  -1.0241
    -0.9862  -0.9583  -0.8382  -0.8068  -0.6419  -0.4564  -0.3738  -0.2447
     0.3412   1.6136   3.3167   5.1127   6.5428   8.1589   8.1728   8.5294

          k = 0.3750-0.0000 0.0000 ( 11873 PWs)   bands (ev):

    -3.4775  -3.4621  -3.2167  -3.1411  -2.8121  -2.7037  -2.3489  -2.2980
    -2.1670  -2.0614  -2.0099  -1.9460  -1.9399  -1.9008  -1.7503  -1.7125
    -1.6933  -1.6915  -1.3515  -1.3193  -1.2963  -1.0352  -0.9837  -0.7646
    -0.7501  -0.5724  -0.5147  -0.4970  -0.3323  -0.3207   0.1005   0.1357
     0.8220   2.3367   4.0362   4.8635   5.9107   6.1066   7.3145   7.8518

          k = 0.3750 0.1250 0.0000 ( 11868 PWs)   bands (ev):

    -3.2791  -3.2790  -3.0404  -3.0023  -2.6795  -2.6103  -2.5408  -2.4318
    -2.1720  -2.1491  -2.1196  -2.0350  -1.9972  -1.8528  -1.8265  -1.7211
    -1.6483  -1.6282  -1.4472  -1.4201  -1.2297  -1.1896  -1.0523  -0.7929
    -0.7400  -0.7220  -0.4990  -0.4816  -0.3998  -0.3967   0.2617   0.5853
     1.4906   2.8799   4.5197   5.2242   6.1509   6.4280   7.4996   8.1265

          k = 0.3750 0.2500 0.0000 ( 11826 PWs)   bands (ev):

    -3.0754  -3.0533  -2.9997  -2.9344  -2.8645  -2.8242  -2.6883  -2.6257
    -2.4363  -2.3527  -2.2530  -2.1559  -1.8528  -1.8033  -1.7629  -1.5174
    -1.3760  -1.3327  -1.2763  -1.2519  -1.1605  -1.0797  -0.9928  -0.8325
    -0.8189  -0.5708  -0.4975  -0.4535  -0.3975  -0.2517   0.7701   1.5538
     2.6748   4.0581   5.6772   6.0258   6.8164   7.3782   8.0920   8.9779

          k = 0.3750 0.3750 0.0000 ( 11799 PWs)   bands (ev):

    -3.3239  -3.2924  -3.2485  -3.2113  -3.0100  -2.9520  -2.9356  -2.8965
    -2.5031  -2.4980  -2.4497  -2.4134  -1.8896  -1.8088  -1.3239  -1.2575
    -1.0175  -0.9357  -0.8080  -0.8008  -0.7273  -0.7265  -0.6820  -0.5480
    -0.4791  -0.4690  -0.4535  -0.4085  -0.3006  -0.1694   2.0044   2.9667
     4.2089   5.6090   6.0965   7.0798   7.1730   8.4987   8.8010   9.6303

          k = 0.3750-0.5000 0.0000 ( 11750 PWs)   bands (ev):

    -3.4294  -3.4293  -3.3375  -3.3374  -3.1018  -3.1012  -3.0111  -3.0111
    -2.6320  -2.6314  -2.4735  -2.4732  -1.7676  -1.7675  -1.1303  -1.1301
    -0.9476  -0.9475  -0.7455  -0.7453  -0.5717  -0.5716  -0.4977  -0.4974
    -0.3179  -0.3178  -0.2261  -0.2255  -0.1056  -0.1053   4.0787   4.0787
     5.0321   5.0322   6.3163   6.3165   7.7016   7.7017   9.1978   9.1978

          k = 0.3750-0.3750 0.0000 ( 11799 PWs)   bands (ev):

    -3.3239  -3.2924  -3.2485  -3.2113  -3.0100  -2.9520  -2.9356  -2.8965
    -2.5031  -2.4980  -2.4497  -2.4134  -1.8896  -1.8088  -1.3239  -1.2575
    -1.0175  -0.9357  -0.8080  -0.8008  -0.7273  -0.7265  -0.6820  -0.5480
    -0.4791  -0.4690  -0.4535  -0.4085  -0.3006  -0.1694   2.0044   2.9667
     4.2089   5.6090   6.0965   7.0798   7.1730   8.4987   8.8009   9.6303

          k = 0.3750-0.2500 0.0000 ( 11826 PWs)   bands (ev):

    -3.0754  -3.0533  -2.9997  -2.9344  -2.8645  -2.8242  -2.6883  -2.6257
    -2.4363  -2.3527  -2.2530  -2.1559  -1.8528  -1.8033  -1.7629  -1.5174
    -1.3760  -1.3327  -1.2763  -1.2519  -1.1605  -1.0797  -0.9928  -0.8325
    -0.8189  -0.5708  -0.4975  -0.4535  -0.3975  -0.2517   0.7701   1.5538
     2.6748   4.0581   5.6772   6.0258   6.8164   7.3782   8.0920   8.9779

          k = 0.3750-0.1250 0.0000 ( 11868 PWs)   bands (ev):

    -3.2791  -3.2790  -3.0404  -3.0023  -2.6795  -2.6103  -2.5408  -2.4318
    -2.1720  -2.1491  -2.1196  -2.0350  -1.9972  -1.8528  -1.8265  -1.7211
    -1.6483  -1.6282  -1.4472  -1.4201  -1.2297  -1.1896  -1.0523  -0.7929
    -0.7400  -0.7220  -0.4990  -0.4816  -0.3998  -0.3967   0.2617   0.5853
     1.4906   2.8799   4.5197   5.2242   6.1509   6.4280   7.4996   8.1265

          k =-0.5000 0.0000 0.0000 ( 11796 PWs)   bands (ev):

    -3.5297  -3.5296  -3.1833  -3.1833  -2.6433  -2.6431  -2.2057  -2.2055
    -2.1875  -2.1870  -2.0622  -2.0621  -2.0161  -2.0160  -1.7727  -1.7724
    -1.6142  -1.6142  -1.3895  -1.3890  -0.9466  -0.9463  -0.8362  -0.8358
    -0.5459  -0.5458  -0.4182  -0.4180  -0.3482  -0.3482   2.1407   2.1408
     2.2254   2.2255   2.7827   2.7832   5.4531   5.4531   7.1956   7.1956

          k =-0.5000 0.1250 0.0000 ( 11862 PWs)   bands (ev):

    -3.3561  -3.3561  -3.0728  -3.0726  -2.6234  -2.6231  -2.3638  -2.3637
    -2.2610  -2.2609  -2.0880  -2.0877  -1.9884  -1.9884  -1.7962  -1.7957
    -1.6815  -1.6810  -1.2591  -1.2590  -1.1624  -1.1618  -0.7796  -0.7796
    -0.6761  -0.6758  -0.4146  -0.4142  -0.3033  -0.3030   2.4218   2.4219
     2.7626   2.7629   3.3724   3.3729   5.6750   5.6751   7.3694   7.3695

          k =-0.5000 0.2500 0.0000 ( 11818 PWs)   bands (ev):

    -3.1269  -3.1268  -3.1165  -3.1160  -2.9299  -2.9298  -2.7343  -2.7343
    -2.4549  -2.4546  -2.2684  -2.2678  -1.6397  -1.6394  -1.5081  -1.5077
    -1.3732  -1.3730  -1.2813  -1.2809  -1.1318  -1.1311  -0.7676  -0.7674
    -0.5142  -0.5141  -0.2966  -0.2964  -0.2545  -0.2543   3.1242   3.1243
     3.8104   3.8107   4.7693   4.7696   6.3683   6.3684   7.9931   7.9932

          k =-0.5000 0.3750 0.0000 ( 11750 PWs)   bands (ev):

    -3.4294  -3.4293  -3.3375  -3.3374  -3.1018  -3.1012  -3.0111  -3.0111
    -2.6320  -2.6314  -2.4735  -2.4732  -1.7676  -1.7675  -1.1303  -1.1301
    -0.9476  -0.9475  -0.7455  -0.7453  -0.5717  -0.5716  -0.4977  -0.4974
    -0.3179  -0.3178  -0.2261  -0.2255  -0.1056  -0.1053   4.0787   4.0787
     5.0321   5.0322   6.3163   6.3165   7.7016   7.7017   9.1978   9.1978

          k =-0.5000-0.5000 0.0000 ( 11668 PWs)   bands (ev):

    -3.5704  -3.5704  -3.4323  -3.4323  -3.2491  -3.2486  -3.0807  -3.0807
    -2.7863  -2.7856  -2.4812  -2.4812  -1.7391  -1.7391  -0.9722  -0.9722
    -0.9157  -0.9156  -0.6359  -0.6358  -0.4001  -0.4001  -0.3317  -0.3317
    -0.1318  -0.1315  -0.0605  -0.0598   0.1112   0.1116   4.7243   4.7243
     5.8760   5.8760   7.4428   7.4428   9.1659   9.1659   9.3243   9.3244

     the Fermi energy is     2.6762 ev

!    total energy              =    -505.73278375 Ry
     estimated scf accuracy    <          9.1E-09 Ry
     smearing contrib. (-TS)   =      -0.00142299 Ry
     internal energy E=F+TS    =    -505.73136075 Ry

     The total energy is F=E-TS. E is the sum of the following terms:
     one-electron contribution =   -6205.72156045 Ry
     hartree contribution      =    3152.05925250 Ry
     xc contribution           =    -133.95042436 Ry
     ewald contribution        =    2682.05303633 Ry
     DFT-D3 Dispersion         =      -0.17166477 Ry

     convergence has been achieved in   5 iterations

     negative rho (up, down):  1.303E-05 0.000E+00

     Forces acting on atoms (cartesian axes, Ry/au):

     atom    1 type  1   force =     0.00000016   -0.00000041    0.00160663
     atom    2 type  1   force =    -0.00000003   -0.00000001    0.00084511
     atom    3 type  1   force =    -0.00000001   -0.00000116   -0.00108285
     atom    4 type  1   force =     0.00000020   -0.00000059    0.00086687
     atom    5 type  1   force =     0.00000024    0.00000060   -0.00094037
     atom    6 type  1   force =    -0.00000056    0.00000157   -0.00129538
     The non-local contrib.  to forces
     atom    1 type  1   force =     0.00000007   -0.00000057   -0.02840949
     atom    2 type  1   force =     0.00000000    0.00000030   -0.09676535
     atom    3 type  1   force =     0.00000040   -0.00000093    0.00172815
     atom    4 type  1   force =     0.00000035   -0.00000033   -0.00185845
     atom    5 type  1   force =     0.00000059    0.00000116    0.09664161
     atom    6 type  1   force =    -0.00000119    0.00000128    0.02862957
     The ionic contribution  to forces
     atom    1 type  1   force =     0.00000000    0.00000000  -89.98510253
     atom    2 type  1   force =    -0.00000000   -0.00000000 -147.95831999
     atom    3 type  1   force =     0.00000028    0.00000160   29.97973132
     atom    4 type  1   force =    -0.00000000   -0.00000003  -29.99158483
     atom    5 type  1   force =     0.00000045    0.00000168  147.96330984
     atom    6 type  1   force =    -0.00000072   -0.00000325   89.99196619
     The local contribution  to forces
     atom    1 type  1   force =    -0.00000008   -0.00000028   90.01020230
     atom    2 type  1   force =    -0.00000031   -0.00000008  148.04570244
     atom    3 type  1   force =    -0.00000022   -0.00000228  -29.98199977
     atom    4 type  1   force =     0.00000014    0.00000032   29.99366721
     atom    5 type  1   force =     0.00000067   -0.00000147 -148.05079797
     atom    6 type  1   force =     0.00000067    0.00000433  -90.01720163
     The core correction contribution to forces
     atom    1 type  1   force =    -0.00000002   -0.00000002    0.00001669
     atom    2 type  1   force =    -0.00000001   -0.00000001    0.00615570
     atom    3 type  1   force =    -0.00000001   -0.00000006    0.00016702
     atom    4 type  1   force =    -0.00000001    0.00000004   -0.00013591
     atom    5 type  1   force =     0.00000006    0.00000002   -0.00615105
     atom    6 type  1   force =     0.00000001    0.00000010   -0.00006405
     The Hubbard contrib.    to forces
     atom    1 type  1   force =     0.00000000    0.00000000    0.00000000
     atom    2 type  1   force =     0.00000000    0.00000000    0.00000000
     atom    3 type  1   force =     0.00000000    0.00000000    0.00000000
     atom    4 type  1   force =     0.00000000    0.00000000    0.00000000
     atom    5 type  1   force =     0.00000000    0.00000000    0.00000000
     atom    6 type  1   force =     0.00000000    0.00000000    0.00000000
     The SCF correction term to forces
     atom    1 type  1   force =     0.00000000    0.00000000   -0.00000000
     atom    2 type  1   force =     0.00000000   -0.00000000   -0.00000000
     atom    3 type  1   force =    -0.00000000    0.00000000    0.00000000
     atom    4 type  1   force =    -0.00000000   -0.00000000    0.00000000
     atom    5 type  1   force =    -0.00000143   -0.00000060    0.00027153
     atom    6 type  1   force =     0.00000077   -0.00000072    0.00051071

     DFT-D3 dispersion contribution to forces:
     atom    1 type  1   force =    -0.00000000   -0.00000000    0.00511318
     atom    2 type  1   force =     0.00000000    0.00000000    0.00420869
     atom    3 type  1   force =    -0.00000000   -0.00000000   -0.00075534
     atom    4 type  1   force =     0.00000000    0.00000000    0.00076910
     atom    5 type  1   force =    -0.00000000   -0.00000000   -0.00420690
     atom    6 type  1   force =     0.00000000    0.00000001   -0.00512874

     Total force =     0.001601     Total SCF correction =     0.000578
     SCF correction compared to forces is large: reduce conv_thr to get better values


     Computing stress (Cartesian axis) and pressure


     negative rho (up, down):  1.303E-05 0.000E+00
          total   stress  (Ry/bohr**3)                   (kbar)     P=      -16.41
  -0.00012922  -0.00000000   0.00000000          -19.01       -0.00        0.00
  -0.00000000  -0.00012922   0.00000000           -0.00      -19.01        0.00
   0.00000000   0.00000000  -0.00007630            0.00        0.00      -11.22

     Energy error            =      3.7E-06 Ry
     Gradient error          =      1.3E-03 Ry/Bohr

     number of scf cycles    =   3
     number of bfgs steps    =   2

     energy             old  =    -505.7327800703 Ry
     energy             new  =    -505.7327837477 Ry

     CASE: energy            _new < energy            _old


[...]
    -1.6510  -1.6301  -1.4547  -1.4281  -1.2334  -1.1930  -1.0549  -0.7946
    -0.7424  -0.7238  -0.5007  -0.4861  -0.4017  -0.3950   0.2563   0.5825
     1.4929   2.8796   4.5237   5.2162   6.1506   6.4329   7.5097   8.1369

          k = 0.1250-0.5000 0.0000 ( 11862 PWs)   bands (ev):

    -3.3709  -3.3702  -3.0842  -3.0826  -2.6291  -2.6290  -2.3736  -2.3715
    -2.2748  -2.2689  -2.0945  -2.0943  -1.9927  -1.9922  -1.8018  -1.7955
    -1.6847  -1.6810  -1.2701  -1.2656  -1.1685  -1.1634  -0.7815  -0.7805
    -0.6786  -0.6771  -0.4180  -0.4126  -0.3076  -0.3042   2.4133   2.4148
     2.7567   2.7599   3.3711   3.3741   5.6739   5.6773   7.3803   7.3855

          k = 0.1250-0.3750 0.0000 ( 11868 PWs)   bands (ev):

    -3.2946  -3.2926  -3.0513  -3.0141  -2.6868  -2.6169  -2.5502  -2.4398
    -2.1809  -2.1544  -2.1268  -2.0452  -2.0023  -1.8588  -1.8296  -1.7240
    -1.6510  -1.6301  -1.4547  -1.4281  -1.2334  -1.1930  -1.0549  -0.7946
    -0.7424  -0.7238  -0.5007  -0.4861  -0.4017  -0.3950   0.2563   0.5825
     1.4929   2.8796   4.5237   5.2162   6.1506   6.4329   7.5097   8.1369

          k = 0.1250-0.2500 0.0000 ( 11878 PWs)   bands (ev):

    -3.5291  -3.2483  -3.0379  -3.0197  -2.7834  -2.7390  -2.6844  -2.5164
    -2.3749  -2.1649  -2.1366  -1.9909  -1.8981  -1.8862  -1.8017  -1.7596
    -1.7512  -1.6061  -1.5052  -1.4804  -1.4291  -1.3723  -1.1260  -1.0274
    -0.9891  -0.9629  -0.8404  -0.8078  -0.6446  -0.4574  -0.3749  -0.2445
     0.3423   1.6153   3.3242   5.1218   6.5545   8.1621   8.1736   8.5217

          k = 0.1250-0.1250 0.0000 ( 11887 PWs)   bands (ev):

    -4.2230  -3.6404  -3.2820  -3.1973  -3.0641  -3.0239  -2.7761  -2.7257
    -2.6009  -2.4643  -2.3369  -1.9772  -1.9504  -1.8818  -1.8730  -1.8241
    -1.7348  -1.5558  -1.3398  -1.3046  -1.2638  -1.2627  -1.1595  -1.0498
    -0.8990  -0.8723  -0.7554  -0.6691  -0.5758  -0.5689  -0.4641  -0.2294
    -0.1784   0.7166   2.3019   4.0161   5.2435   7.3048   7.3541   7.9979

          k = 0.2500-0.0000 0.0000 ( 11877 PWs)   bands (ev):

    -3.7801  -3.5145  -3.2858  -3.2327  -2.9275  -2.9259  -2.7718  -2.5227
    -2.2052  -2.0786  -1.9694  -1.8578  -1.8479  -1.8293  -1.8225  -1.7165
    -1.6519  -1.6405  -1.4810  -1.4761  -1.3808  -1.3177  -1.1656  -1.1273
    -0.9125  -0.8505  -0.8398  -0.7674  -0.5704  -0.3839  -0.2780  -0.2585
    -0.2573   1.1495   2.9338   4.7489   6.1627   7.8836   7.8968   8.1689

          k = 0.2500 0.1250 0.0000 ( 11878 PWs)   bands (ev):

    -3.5291  -3.2483  -3.0379  -3.0197  -2.7834  -2.7390  -2.6844  -2.5164
    -2.3749  -2.1649  -2.1366  -1.9909  -1.8981  -1.8862  -1.8017  -1.7596
    -1.7512  -1.6061  -1.5052  -1.4804  -1.4291  -1.3723  -1.1260  -1.0274
    -0.9891  -0.9629  -0.8404  -0.8078  -0.6446  -0.4574  -0.3749  -0.2445
     0.3423   1.6153   3.3242   5.1218   6.5545   8.1621   8.1736   8.5217

          k = 0.2500 0.2500 0.0000 ( 11857 PWs)   bands (ev):

    -3.1160  -2.8680  -2.8021  -2.7286  -2.6554  -2.6141  -2.5462  -2.4816
    -2.3964  -2.3564  -2.3558  -2.3395  -2.1198  -1.9043  -1.9023  -1.7068
    -1.4727  -1.4705  -1.3214  -1.3048  -1.2326  -1.2158  -1.1490  -1.0549
    -1.0353  -1.0086  -0.8725  -0.8617  -0.5182  -0.4978  -0.1918   0.2337
     1.2670   2.6173   4.3011   6.1022   7.6111   8.8731   8.9478   9.0378

          k = 0.2500 0.3750 0.0000 ( 11826 PWs)   bands (ev):

    -3.0900  -3.0680  -3.0134  -2.9471  -2.8766  -2.8351  -2.6969  -2.6351
    -2.4405  -2.3573  -2.2560  -2.1592  -1.8612  -1.8119  -1.7699  -1.5229
    -1.3776  -1.3347  -1.2825  -1.2530  -1.1629  -1.0820  -0.9979  -0.8338
    -0.8203  -0.5754  -0.4980  -0.4565  -0.3987  -0.2498   0.7627   1.5523
     2.6796   4.0590   5.6846   6.0175   6.8149   7.3857   8.1000   8.9862

          k = 0.2500-0.5000 0.0000 ( 11818 PWs)   bands (ev):

    -3.1435  -3.1406  -3.1302  -3.1276  -2.9421  -2.9414  -2.7435  -2.7434
    -2.4600  -2.4571  -2.2716  -2.2698  -1.6482  -1.6455  -1.5172  -1.5114
    -1.3782  -1.3760  -1.2829  -1.2812  -1.1383  -1.1323  -0.7707  -0.7686
    -0.5159  -0.5157  -0.3001  -0.2975  -0.2567  -0.2539   3.1153   3.1165
     3.8062   3.8091   4.7706   4.7737   6.3675   6.3709   8.0020   8.0066

          k = 0.2500-0.3750 0.0000 ( 11826 PWs)   bands (ev):

    -3.0900  -3.0680  -3.0134  -2.9471  -2.8766  -2.8351  -2.6969  -2.6351
    -2.4405  -2.3573  -2.2560  -2.1592  -1.8612  -1.8119  -1.7699  -1.5229
    -1.3776  -1.3347  -1.2825  -1.2530  -1.1629  -1.0820  -0.9979  -0.8338
    -0.8203  -0.5754  -0.4980  -0.4565  -0.3987  -0.2498   0.7627   1.5523
     2.6796   4.0590   5.6846   6.0175   6.8149   7.3857   8.1000   8.9862

          k = 0.2500-0.2500 0.0000 ( 11857 PWs)   bands (ev):

    -3.1160  -2.8680  -2.8021  -2.7286  -2.6554  -2.6141  -2.5462  -2.4816
    -2.3964  -2.3564  -2.3558  -2.3395  -2.1198  -1.9043  -1.9023  -1.7068
    -1.4727  -1.4705  -1.3214  -1.3048  -1.2326  -1.2158  -1.1490  -1.0549
    -1.0353  -1.0086  -0.8725  -0.8617  -0.5182  -0.4978  -0.1918   0.2337
     1.2670   2.6173   4.3011   6.1022   7.6111   8.8731   8.9478   9.0378

          k = 0.2500-0.1250 0.0000 ( 11878 PWs)   bands (ev):

    -3.5291  -3.2483  -3.0379  -3.0197  -2.7834  -2.7390  -2.6844  -2.5164
    -2.3749  -2.1649  -2.1366  -1.9909  -1.8981  -1.8862  -1.8017  -1.7596
    -1.7512  -1.6061  -1.5052  -1.4804  -1.4291  -1.3723  -1.1260  -1.0274
    -0.9891  -0.9629  -0.8404  -0.8078  -0.6446  -0.4574  -0.3749  -0.2445
     0.3423   1.6153   3.3242   5.1218   6.5545   8.1621   8.1736   8.5217

          k = 0.3750-0.0000 0.0000 ( 11873 PWs)   bands (ev):

    -3.4912  -3.4781  -3.2274  -3.1532  -2.8153  -2.7064  -2.3584  -2.3016
    -2.1683  -2.0639  -2.0127  -1.9612  -1.9559  -1.9054  -1.7555  -1.7220
    -1.7026  -1.6986  -1.3515  -1.3246  -1.2968  -1.0394  -0.9888  -0.7663
    -0.7545  -0.5779  -0.5163  -0.4975  -0.3310  -0.3203   0.0961   0.1313
     0.8224   2.3353   4.0388   4.8555   5.9106   6.1105   7.3255   7.8633

          k = 0.3750 0.1250 0.0000 ( 11868 PWs)   bands (ev):

    -3.2946  -3.2926  -3.0513  -3.0141  -2.6868  -2.6169  -2.5502  -2.4398
    -2.1809  -2.1544  -2.1268  -2.0452  -2.0023  -1.8588  -1.8296  -1.7240
    -1.6510  -1.6301  -1.4547  -1.4281  -1.2334  -1.1930  -1.0549  -0.7946
    -0.7424  -0.7238  -0.5007  -0.4861  -0.4017  -0.3950   0.2563   0.5825
     1.4929   2.8796   4.5237   5.2162   6.1506   6.4329   7.5097   8.1369

          k = 0.3750 0.2500 0.0000 ( 11826 PWs)   bands (ev):

    -3.0900  -3.0680  -3.0134  -2.9471  -2.8766  -2.8351  -2.6969  -2.6351
    -2.4405  -2.3573  -2.2560  -2.1592  -1.8612  -1.8119  -1.7699  -1.5229
    -1.3776  -1.3347  -1.2825  -1.2530  -1.1629  -1.0820  -0.9979  -0.8338
    -0.8203  -0.5754  -0.4980  -0.4565  -0.3987  -0.2498   0.7627   1.5523
     2.6796   4.0590   5.6846   6.0175   6.8149   7.3857   8.1000   8.9862

          k = 0.3750 0.3750 0.0000 ( 11799 PWs)   bands (ev):

    -3.3390  -3.3072  -3.2635  -3.2246  -3.0212  -2.9621  -2.9471  -2.9059
    -2.5042  -2.4991  -2.4523  -2.4158  -1.8973  -1.8186  -1.3273  -1.2655
    -1.0211  -0.9412  -0.8082  -0.8015  -0.7309  -0.7287  -0.6869  -0.5481
    -0.4809  -0.4711  -0.4577  -0.4125  -0.3018  -0.1674   1.9953   2.9653
     4.2147   5.6103   6.0862   7.0769   7.1823   8.5052   8.8123   9.6280

          k = 0.3750-0.5000 0.0000 ( 11750 PWs)   bands (ev):

    -3.4450  -3.4438  -3.3526  -3.3512  -3.1146  -3.1098  -3.0222  -3.0214
    -2.6338  -2.6319  -2.4753  -2.4752  -1.7760  -1.7760  -1.1347  -1.1324
    -0.9530  -0.9510  -0.7472  -0.7465  -0.5752  -0.5747  -0.4988  -0.4966
    -0.3227  -0.3200  -0.2339  -0.2265  -0.1072  -0.1037   4.0685   4.0689
     5.0292   5.0304   6.3214   6.3225   7.7020   7.7031   9.2055   9.2078

          k = 0.3750-0.3750 0.0000 ( 11799 PWs)   bands (ev):

    -3.3390  -3.3072  -3.2635  -3.2246  -3.0212  -2.9621  -2.9471  -2.9059
    -2.5042  -2.4991  -2.4523  -2.4158  -1.8973  -1.8186  -1.3273  -1.2655
    -1.0211  -0.9412  -0.8082  -0.8015  -0.7309  -0.7287  -0.6869  -0.5481
    -0.4809  -0.4711  -0.4577  -0.4125  -0.3018  -0.1674   1.9953   2.9653
     4.2147   5.6103   6.0862   7.0769   7.1823   8.5052   8.8123   9.6280

          k = 0.3750-0.2500 0.0000 ( 11826 PWs)   bands (ev):

    -3.0900  -3.0680  -3.0134  -2.9471  -2.8766  -2.8351  -2.6969  -2.6351
    -2.4405  -2.3573  -2.2560  -2.1592  -1.8612  -1.8119  -1.7699  -1.5229
    -1.3776  -1.3347  -1.2825  -1.2530  -1.1629  -1.0820  -0.9979  -0.8338
    -0.8203  -0.5754  -0.4980  -0.4565  -0.3987  -0.2498   0.7627   1.5523
     2.6796   4.0590   5.6846   6.0175   6.8149   7.3857   8.1000   8.9862

          k = 0.3750-0.1250 0.0000 ( 11868 PWs)   bands (ev):

    -3.2946  -3.2926  -3.0513  -3.0141  -2.6868  -2.6169  -2.5502  -2.4398
    -2.1809  -2.1544  -2.1268  -2.0452  -2.0023  -1.8588  -1.8296  -1.7240
    -1.6510  -1.6301  -1.4547  -1.4281  -1.2334  -1.1930  -1.0549  -0.7946
    -0.7424  -0.7238  -0.5007  -0.4861  -0.4017  -0.3950   0.2563   0.5825
     1.4929   2.8796   4.5237   5.2162   6.1506   6.4329   7.5097   8.1369

          k =-0.5000 0.0000 0.0000 ( 11796 PWs)   bands (ev):

    -3.5446  -3.5443  -3.1942  -3.1932  -2.6439  -2.6437  -2.2145  -2.2130
    -2.1917  -2.1881  -2.0644  -2.0624  -2.0327  -2.0309  -1.7843  -1.7816
    -1.6235  -1.6205  -1.3904  -1.3884  -0.9529  -0.9488  -0.8424  -0.8403
    -0.5475  -0.5456  -0.4218  -0.4204  -0.3474  -0.3466   2.1319   2.1331
     2.2194   2.2203   2.7809   2.7825   5.4519   5.4551   7.2073   7.2124

          k =-0.5000 0.1250 0.0000 ( 11862 PWs)   bands (ev):

    -3.3709  -3.3702  -3.0842  -3.0826  -2.6291  -2.6290  -2.3736  -2.3715
    -2.2748  -2.2689  -2.0945  -2.0943  -1.9927  -1.9922  -1.8018  -1.7955
    -1.6847  -1.6810  -1.2701  -1.2656  -1.1685  -1.1634  -0.7815  -0.7805
    -0.6786  -0.6771  -0.4180  -0.4126  -0.3076  -0.3042   2.4133   2.4148
     2.7567   2.7599   3.3711   3.3741   5.6739   5.6773   7.3803   7.3855

          k =-0.5000 0.2500 0.0000 ( 11818 PWs)   bands (ev):

    -3.1435  -3.1406  -3.1302  -3.1276  -2.9421  -2.9414  -2.7435  -2.7434
    -2.4600  -2.4571  -2.2716  -2.2698  -1.6482  -1.6455  -1.5172  -1.5114
    -1.3782  -1.3760  -1.2829  -1.2812  -1.1383  -1.1323  -0.7707  -0.7686
    -0.5159  -0.5157  -0.3001  -0.2975  -0.2567  -0.2539   3.1153   3.1165
     3.8062   3.8091   4.7706   4.7737   6.3675   6.3709   8.0020   8.0066

          k =-0.5000 0.3750 0.0000 ( 11750 PWs)   bands (ev):

    -3.4450  -3.4438  -3.3526  -3.3512  -3.1146  -3.1098  -3.0222  -3.0214
    -2.6338  -2.6319  -2.4753  -2.4752  -1.7760  -1.7760  -1.1347  -1.1324
    -0.9530  -0.9510  -0.7472  -0.7465  -0.5752  -0.5747  -0.4988  -0.4966
    -0.3227  -0.3200  -0.2339  -0.2265  -0.1072  -0.1037   4.0685   4.0689
     5.0292   5.0304   6.3214   6.3225   7.7020   7.7031   9.2055   9.2078

          k =-0.5000-0.5000 0.0000 ( 11668 PWs)   bands (ev):

    -3.5865  -3.5842  -3.4474  -3.4474  -3.2610  -3.2574  -3.0919  -3.0919
    -2.7880  -2.7860  -2.4827  -2.4827  -1.7477  -1.7477  -0.9744  -0.9744
    -0.9194  -0.9185  -0.6372  -0.6366  -0.4016  -0.4012  -0.3294  -0.3294
    -0.1411  -0.1333  -0.0723  -0.0625   0.1095   0.1120   4.7121   4.7121
     5.8731   5.8731   7.4511   7.4511   9.1640   9.1640   9.3229   9.3235

     the Fermi energy is     2.6757 ev

!    total energy              =    -505.73282612 Ry
     estimated scf accuracy    <          2.2E-09 Ry
     smearing contrib. (-TS)   =      -0.00141729 Ry
     internal energy E=F+TS    =    -505.73140883 Ry

     The total energy is F=E-TS. E is the sum of the following terms:
     one-electron contribution =   -6222.89421029 Ry
     hartree contribution      =    3160.63406467 Ry
     xc contribution           =    -133.95506881 Ry
     ewald contribution        =    2690.65581148 Ry
     DFT-D3 Dispersion         =      -0.17200588 Ry

     convergence has been achieved in   6 iterations

     negative rho (up, down):  1.431E-05 0.000E+00

     Forces acting on atoms (cartesian axes, Ry/au):

     atom    1 type  1   force =     0.00000004    0.00000006    0.00167030
     atom    2 type  1   force =     0.00000002   -0.00000005    0.00085873
     atom    3 type  1   force =     0.00000011    0.00000061   -0.00333542
     atom    4 type  1   force =    -0.00000003    0.00000011    0.00078227
     atom    5 type  1   force =     0.00000022    0.00000047   -0.00090140
     atom    6 type  1   force =    -0.00000037   -0.00000120    0.00092552
     The non-local contrib.  to forces
     atom    1 type  1   force =     0.00000000    0.00000007   -0.02845161
     atom    2 type  1   force =     0.00000002   -0.00000005   -0.09661763
     atom    3 type  1   force =     0.00000007    0.00000047   -0.00006076
     atom    4 type  1   force =    -0.00000004    0.00000012   -0.00156157
     atom    5 type  1   force =     0.00000012    0.00000027    0.09613964
     atom    6 type  1   force =    -0.00000035   -0.00000072    0.03029769
     The ionic contribution  to forces
     atom    1 type  1   force =     0.00000000    0.00000000  -90.11298411
     atom    2 type  1   force =    -0.00000000   -0.00000000 -148.08621554
     atom    3 type  1   force =     0.00000627    0.00002582   29.92855070
     atom    4 type  1   force =    -0.00000010   -0.00000041  -30.12070473
     atom    5 type  1   force =     0.00000914    0.00003067  148.21900806
     atom    6 type  1   force =    -0.00001531   -0.00005608   90.17234563
     The local contribution  to forces
     atom    1 type  1   force =    -0.00000002   -0.00000003   90.13796160
     atom    2 type  1   force =    -0.00000002    0.00000003  148.17336659
     atom    3 type  1   force =    -0.00000619   -0.00002558  -29.93162723
     atom    4 type  1   force =     0.00000004    0.00000040   30.12234377
     atom    5 type  1   force =    -0.00000912   -0.00003041 -148.30568654
     atom    6 type  1   force =     0.00001521    0.00005532  -90.19603801
     The core correction contribution to forces
     atom    1 type  1   force =     0.00000000   -0.00000000    0.00001716
     atom    2 type  1   force =     0.00000000    0.00000000    0.00615921
     atom    3 type  1   force =    -0.00000002   -0.00000009    0.00047692
     atom    4 type  1   force =    -0.00000000   -0.00000001   -0.00011895
     atom    5 type  1   force =    -0.00000004   -0.00000011   -0.00616463
     atom    6 type  1   force =     0.00000006    0.00000018   -0.00037823
     The Hubbard contrib.    to forces
     atom    1 type  1   force =     0.00000000    0.00000000    0.00000000
     atom    2 type  1   force =     0.00000000    0.00000000    0.00000000
     atom    3 type  1   force =     0.00000000    0.00000000    0.00000000
     atom    4 type  1   force =     0.00000000    0.00000000    0.00000000
     atom    5 type  1   force =     0.00000000    0.00000000    0.00000000
     atom    6 type  1   force =     0.00000000    0.00000000    0.00000000
     The SCF correction term to forces
     atom    1 type  1   force =     0.00000000    0.00000000   -0.00000000
     atom    2 type  1   force =    -0.00000000   -0.00000000   -0.00000000
     atom    3 type  1   force =    -0.00000000    0.00000000   -0.00000000
     atom    4 type  1   force =     0.00000000    0.00000000    0.00000000
     atom    5 type  1   force =     0.00000011    0.00000013    0.00004092
     atom    6 type  1   force =    -0.00000005   -0.00000003   -0.00003908

     DFT-D3 dispersion contribution to forces:
     atom    1 type  1   force =    -0.00000000   -0.00000000    0.00512850
     atom    2 type  1   force =     0.00000000    0.00000000    0.00421121
     atom    3 type  1   force =    -0.00000001   -0.00000006   -0.00063214
     atom    4 type  1   force =     0.00000000    0.00000000    0.00080572
     atom    5 type  1   force =    -0.00000002   -0.00000008   -0.00424483
     atom    6 type  1   force =     0.00000004    0.00000013   -0.00526845

     Total force =     0.001292     Total SCF correction =     0.000057


     Computing stress (Cartesian axis) and pressure


     negative rho (up, down):  1.431E-05 0.000E+00
          total   stress  (Ry/bohr**3)                   (kbar)     P=      -15.83
  -0.00012588  -0.00000000  -0.00000000          -18.52       -0.00       -0.00
  -0.00000000  -0.00012588   0.00000000           -0.00      -18.52        0.00
  -0.00000000   0.00000000  -0.00007116           -0.00        0.00      -10.47

     Energy error            =      3.0E-06 Ry
     Gradient error          =      9.3E-04 Ry/Bohr

     bfgs converged in  10 scf cycles and   9 bfgs steps
     (criteria: energy <  1.0E-04 Ry, force <  1.0E-03 Ry/Bohr)

     End of BFGS Geometry Optimization

     Final energy             =    -505.7328261247 Ry

     File ./Ag_100/Ag_100.bfgs deleted, as requested
Begin final coordinates

ATOMIC_POSITIONS (angstrom)
Ag            2.1766636603        0.7255545534       12.0521781795    0   0   0
Ag            0.7255545534        2.1766636603       10.0000000000    0   0   0
Ag            2.1766636603        0.7255545534       16.1565345384    0   0   0
Ag            0.7255545534        2.1766636603       14.1043563589    0   0   0
Ag            2.1766620241        0.7255514688       20.2408250377
Ag            0.7255575664        2.1766761333       18.1877056188
End final coordinates



     Writing all to output data dir ./Ag_100/Ag_100.save/

     init_run     :      5.55s CPU      8.81s WALL (       1 calls)
     electrons    :     32.39s CPU     46.58s WALL (      10 calls)
     update_pot   :      1.78s CPU      2.79s WALL (       9 calls)
     forces       :      2.34s CPU      4.27s WALL (      10 calls)
     force_dftd3  :      0.54s CPU      0.80s WALL (      10 calls)
     stress       :      7.16s CPU      7.40s WALL (      10 calls)
     stres_dftd3  :      0.06s CPU      0.09s WALL (      10 calls)

     Called by init_run:
     wfcinit      :      0.29s CPU      0.53s WALL (       1 calls)
     potinit      :      1.23s CPU      3.32s WALL (       1 calls)
     hinit0       :      3.81s CPU      4.60s WALL (       1 calls)

     Called by electrons:
     c_bands      :     24.12s CPU     26.35s WALL (      72 calls)
     sum_band     :      3.57s CPU      4.17s WALL (      72 calls)
     v_of_rho     :      2.52s CPU     13.56s WALL (      73 calls)
     newd         :      2.41s CPU      4.59s WALL (      73 calls)
     mix_rho      :      0.19s CPU      0.32s WALL (      72 calls)
     energy_dftd3 :      0.02s CPU      0.02s WALL (      10 calls)

     Called by c_bands:
     init_us_2    :      0.19s CPU      0.21s WALL (    1485 calls)
     init_us_2:cp :      0.19s CPU      0.21s WALL (    1485 calls)
     cegterg      :     22.07s CPU     23.43s WALL (     648 calls)

     Called by *egterg:
     cdiaghg      :      4.84s CPU      4.90s WALL (    2392 calls)
     h_psi        :     13.75s CPU     14.96s WALL (    2563 calls)
     s_psi        :      0.70s CPU      0.72s WALL (    2563 calls)
     g_psi        :      0.06s CPU      0.07s WALL (    1906 calls)

     Called by h_psi:
     h_psi:calbec :      1.12s CPU      1.27s WALL (    2563 calls)
     vloc_psi     :     11.88s CPU     12.91s WALL (    2563 calls)
     add_vuspsi   :      0.70s CPU      0.73s WALL (    2563 calls)

     General routines
     calbec       :      1.90s CPU      2.12s WALL (    3661 calls)
     fft          :      7.60s CPU     23.18s WALL (    1197 calls)
     ffts         :      1.00s CPU      1.25s WALL (     145 calls)
     fftw         :     12.52s CPU     13.58s WALL (  165078 calls)
     interpolate  :      1.52s CPU      2.20s WALL (      73 calls)

     Parallel routines

     PWSCF        :     50.29s CPU   1m12.38s WALL


   This run was terminated on:  11:24: 7  18Jul2025            

=------------------------------------------------------------------------------=
   JOB DONE.
=------------------------------------------------------------------------------=
