
     Program PWSCF v.7.2 starts on 25Jul2025 at 11: 7: 5 

     This program is part of the open-source Quantum ESPRESSO suite
     for quantum simulation of materials; please cite
         "P. Giannozzi et al., J. Phys.:Condens. Matter 21 395502 (2009);
         "P. Giannozzi et al., J. Phys.:Condens. Matter 29 465901 (2017);
         "P. Giannozzi et al., J. Chem. Phys. 152 154105 (2020);
          URL http://www.quantum-espresso.org", 
     in publications or presentations arising from this work. More details at
     http://www.quantum-espresso.org/quote

     Parallel version (MPI & OpenMP), running on     256 processor cores
     Number of MPI processes:               256
     Threads/MPI process:                     1

     MPI processes distributed on     4 nodes
     240036 MiB available memory on the printing compute node when the environment starts

     Reading input from Ag_mp-10597_100_hollow_1.in

     Current dimensions of program PWSCF are:
     Max number of different atomic species (ntypx) = 10
     Max number of k-points (npk) =  40000
     Max angular momentum in pseudopotentials (lmaxx) =  4
     Message from routine iosys:
     restart disabled: needed files not found

     K-points division:     npool     =       4
     R & G space division:  proc/nbgrp/npool/nimage =      64
     Subspace diagonalization in iterative solution of the eigenvalue problem:
     a serial algorithm will be used


     Parallelization info
     --------------------
     sticks:   dense  smooth     PW     G-vecs:    dense   smooth      PW
     Min          30      13      4                 9144     2655     410
     Max          31      14      5                 9185     2694     446
     Sum        1957     855    257               586667   170897   27731

     Using Slab Decomposition



     bravais-lattice index     =            0
     lattice parameter (alat)  =       5.5223  a.u.
     unit-cell volume          =    3105.8847 (a.u.)^3
     number of atoms/cell      =           13
     number of atomic types    =            2
     number of electrons       =       135.00
     number of Kohn-Sham states=           82
     kinetic-energy cutoff     =      55.0000  Ry
     charge density cutoff     =     500.0000  Ry
     scf convergence threshold =      1.0E-06
     mixing beta               =       0.3000
     number of iterations used =            8  plain     mixing
     energy convergence thresh.=      1.0E-04
     force convergence thresh. =      1.0E-03
     Exchange-correlation= PBE
                           (   1   4   3   4   0   0   0)
     nstep                     =          500


     celldm(1)=   5.522345  celldm(2)=   0.000000  celldm(3)=   0.000000
     celldm(4)=   0.000000  celldm(5)=   0.000000  celldm(6)=   0.000000

     crystal axes: (cart. coord. in units of alat)
               a(1) = (   1.000000   0.000000   0.000000 )  
               a(2) = (   0.000000   1.608891   0.000000 )  
               a(3) = (   0.000000   0.000000  11.462728 )  

     reciprocal axes: (cart. coord. in units 2 pi/alat)
               b(1) = (  1.000000 -0.000000  0.000000 )  
               b(2) = (  0.000000  0.621546  0.000000 )  
               b(3) = ( -0.000000 -0.000000  0.087239 )  


     PseudoPot. # 1 for Li read from file:
     /home/ecastro/trabajo_final/pseudos/Li.pbe-s-rrkjus_psl.1.0.0.UPF
     MD5 check sum: 9f98d2529904d60b716d33989e9bc179
     Pseudo is Ultrasoft, Zval =  3.0
     Generated using &quot;atomic&quot; code by A. Dal Corso  v.6.3MaX
     Using radial grid of 1017 points,  4 beta functions with: 
                l(1) =   0
                l(2) =   0
                l(3) =   1
                l(4) =   1
     Q(r) pseudized with 0 coefficients 


     PseudoPot. # 2 for Ag read from file:
     /home/ecastro/trabajo_final/pseudos/Ag.pbe-n-rrkjus_psl.1.0.0.UPF
     MD5 check sum: 81cdf87bacf708300839c66ee23ce017
     Pseudo is Ultrasoft + core correction, Zval = 11.0
     Generated using &quot;atomic&quot; code by A. Dal Corso  v.6.2.2
     Using radial grid of 1237 points,  6 beta functions with: 
                l(1) =   0
                l(2) =   0
                l(3) =   1
                l(4) =   1
                l(5) =   2
                l(6) =   2
     Q(r) pseudized with 0 coefficients 


     atomic species   valence    mass     pseudopotential
        Li             3.00     6.94100     Li( 1.00)
        Ag            11.00   107.86820     Ag( 1.00)

     No symmetry found



   Cartesian axes

     site n.     atom                  positions (alat units)
         1           Ag  tau(   1) = (   0.2500023   1.2066690   8.0025343  )
         2           Ag  tau(   2) = (   0.7500003   0.4022231   7.7510142  )
         3           Ag  tau(   3) = (   0.7500012   1.2066701   7.1569532  )
         4           Ag  tau(   4) = (   0.2499991   0.4022236   6.8754064  )
         5           Ag  tau(   5) = (   0.2500000   1.2066685   6.3087145  )
         6           Ag  tau(   6) = (   0.7500000   0.4022228   6.0200394  )
         7           Ag  tau(   7) = (   0.7500000   1.2066685   5.4426891  )
         8           Ag  tau(   8) = (   0.2500000   0.4022228   5.1540140  )
         9           Ag  tau(   9) = (   0.2500000   1.2066685   4.5766637  )
        10           Ag  tau(  10) = (   0.7500000   0.4022228   4.2879886  )
        11           Ag  tau(  11) = (   0.7500000   1.2066685   3.7106383  )
        12           Ag  tau(  12) = (   0.2500000   0.4022228   3.4219632  )
        13           Li  tau(  13) = (   0.2500010   0.1340746   8.6869270  )

     --------------------------------------------
     DFT-D3 Dispersion Correction (no 3-body):
     --------------------------------------------
       Reference C6 values for interpolation: 

         atom   Coordination number   C6
         Li         0.000          2326.89
         Li         0.987           170.64
         Ag         0.000           853.49
         Ag         0.968           537.23

       Values used:

         atom   Coordination number  R0_AB[au]  C6      C8
         Ag         7.139            3.147    537.23  47741.54
         Ag         8.051            3.147    537.23  47741.54
         Ag         8.816            3.147    537.23  47741.54
         Ag         8.714            3.147    537.23  47741.54
         Ag         8.783            3.147    537.23  47741.54
         Ag         8.701            3.147    537.23  47741.54
         Ag         8.632            3.147    537.23  47741.54
         Ag         8.631            3.147    537.23  47741.54
         Ag         8.626            3.147    537.23  47741.54
         Ag         8.618            3.147    537.23  47741.54
         Ag         7.200            3.147    537.23  47741.54
         Ag         5.720            3.147    537.23  47741.54
         Li         3.677            3.303    170.64  12899.87

         Molecular C6 ( Ry / a.u.^6 ) =     84474.69


     number of k points=    34  Methfessel-Paxton smearing, width (Ry)=  0.0300
                       cart. coord. in units 2pi/alat
        k(    1) = (   0.0000000   0.0000000   0.0000000), wk =   0.0312500
        k(    2) = (   0.0000000   0.0776933   0.0000000), wk =   0.0625000
        k(    3) = (   0.0000000   0.1553865   0.0000000), wk =   0.0625000
        k(    4) = (   0.0000000   0.2330798   0.0000000), wk =   0.0625000
        k(    5) = (   0.0000000  -0.3107730   0.0000000), wk =   0.0312500
        k(    6) = (   0.1250000  -0.0000000   0.0000000), wk =   0.0625000
        k(    7) = (   0.1250000   0.0776933   0.0000000), wk =   0.0625000
        k(    8) = (   0.1250000   0.1553865   0.0000000), wk =   0.0625000
        k(    9) = (   0.1250000   0.2330798   0.0000000), wk =   0.0625000
        k(   10) = (   0.1250000  -0.3107730   0.0000000), wk =   0.0625000
        k(   11) = (   0.1250000  -0.2330798   0.0000000), wk =   0.0625000
        k(   12) = (   0.1250000  -0.1553865   0.0000000), wk =   0.0625000
        k(   13) = (   0.1250000  -0.0776933   0.0000000), wk =   0.0625000
        k(   14) = (   0.2500000  -0.0000000   0.0000000), wk =   0.0625000
        k(   15) = (   0.2500000   0.0776933   0.0000000), wk =   0.0625000
        k(   16) = (   0.2500000   0.1553865   0.0000000), wk =   0.0625000
        k(   17) = (   0.2500000   0.2330798   0.0000000), wk =   0.0625000
        k(   18) = (   0.2500000  -0.3107730   0.0000000), wk =   0.0625000
        k(   19) = (   0.2500000  -0.2330798   0.0000000), wk =   0.0625000
        k(   20) = (   0.2500000  -0.1553865   0.0000000), wk =   0.0625000
        k(   21) = (   0.2500000  -0.0776933   0.0000000), wk =   0.0625000
        k(   22) = (   0.3750000  -0.0000000   0.0000000), wk =   0.0625000
        k(   23) = (   0.3750000   0.0776933   0.0000000), wk =   0.0625000
        k(   24) = (   0.3750000   0.1553865   0.0000000), wk =   0.0625000
        k(   25) = (   0.3750000   0.2330798   0.0000000), wk =   0.0625000
        k(   26) = (   0.3750000  -0.3107730   0.0000000), wk =   0.0625000
        k(   27) = (   0.3750000  -0.2330798   0.0000000), wk =   0.0625000
        k(   28) = (   0.3750000  -0.1553865   0.0000000), wk =   0.0625000
        k(   29) = (   0.3750000  -0.0776933   0.0000000), wk =   0.0625000
        k(   30) = (  -0.5000000   0.0000000   0.0000000), wk =   0.0312500
        k(   31) = (  -0.5000000   0.0776933   0.0000000), wk =   0.0625000
        k(   32) = (  -0.5000000   0.1553865   0.0000000), wk =   0.0625000
        k(   33) = (  -0.5000000   0.2330798   0.0000000), wk =   0.0625000
        k(   34) = (  -0.5000000  -0.3107730   0.0000000), wk =   0.0312500

     Dense  grid:   586667 G-vectors     FFT dimensions: (  40,  64, 480)

     Smooth grid:   170897 G-vectors     FFT dimensions: (  27,  45, 300)

     Estimated max dynamical RAM per process >      22.15 MB

     Estimated total dynamical RAM >       5.12 GB
     Cannot read rho : file not found

     Initial potential from superposition of free atoms

     starting charge     134.9906, renormalised to     135.0000

     negative rho (up, down):  5.922E-05 0.000E+00
     Message from routine qexsd_readschema :
     xml data file ./Ag_mp-10597_100_hollow_1/Ag_mp-10597_100_hollow_1.save/data-file
     Cannot read wfcs: file not found
     Starting wfcs are  113 randomized atomic wfcs

     total cpu time spent up to now is        8.9 secs

     per-process dynamical memory:   180.6 Mb

     Self-consistent Calculation

     iteration #  1     ecut=    55.00 Ry     beta= 0.30
     Davidson diagonalization with overlap
     c_bands:  1 eigenvalues not converged
     c_bands:  2 eigenvalues not converged
     c_bands:  3 eigenvalues not converged
     c_bands:  2 eigenvalues not converged
     c_bands:  1 eigenvalues not converged
     c_bands:  1 eigenvalues not converged
     c_bands:  2 eigenvalues not converged
     c_bands:  4 eigenvalues not converged
     c_bands:  2 eigenvalues not converged
     ethr =  1.00E-05,  avg # of iterations = 19.8

     negative rho (up, down):  4.855E-05 0.000E+00

     total cpu time spent up to now is       14.9 secs

     total energy              =   -1026.24255455 Ry
     estimated scf accuracy    <       0.43248591 Ry

     iteration #  2     ecut=    55.00 Ry     beta= 0.30
     Davidson diagonalization with overlap
     ethr =  3.20E-04,  avg # of iterations =  9.4

     negative rho (up, down):  8.821E-05 0.000E+00

     total cpu time spent up to now is       17.0 secs

     total energy              =   -1025.79522034 Ry
     estimated scf accuracy    <      13.84166406 Ry

     iteration #  3     ecut=    55.00 Ry     beta= 0.30
     Davidson diagonalization with overlap
     ethr =  3.20E-04,  avg # of iterations =  9.3

     negative rho (up, down):  9.986E-05 0.000E+00

     total cpu time spent up to now is       19.1 secs

     total energy              =   -1026.34658026 Ry
     estimated scf accuracy    <       0.71448800 Ry

     iteration #  4     ecut=    55.00 Ry     beta= 0.30
     Davidson diagonalization with overlap
     ethr =  3.20E-04,  avg # of iterations =  4.9

     negative rho (up, down):  9.811E-05 0.000E+00

     total cpu time spent up to now is       20.4 secs

     total energy              =   -1026.32733414 Ry
     estimated scf accuracy    <       3.38368224 Ry

     iteration #  5     ecut=    55.00 Ry     beta= 0.30
     Davidson diagonalization with overlap
     ethr =  3.20E-04,  avg # of iterations =  2.0

     negative rho (up, down):  6.047E-05 0.000E+00

     total cpu time spent up to now is       21.4 secs

     total energy              =   -1026.38045684 Ry
     estimated scf accuracy    <       0.04280279 Ry

     iteration #  6     ecut=    55.00 Ry     beta= 0.30
     Davidson diagonalization with overlap
     ethr =  3.17E-05,  avg # of iterations = 11.1

     negative rho (up, down):  6.426E-05 0.000E+00

     total cpu time spent up to now is       23.3 secs

     total energy              =   -1026.38333713 Ry
     estimated scf accuracy    <       0.00910546 Ry

     iteration #  7     ecut=    55.00 Ry     beta= 0.30
     Davidson diagonalization with overlap
     ethr =  6.74E-06,  avg # of iterations =  6.3

     negative rho (up, down):  3.960E-05 0.000E+00

     total cpu time spent up to now is       24.9 secs

     total energy              =   -1026.38432890 Ry
     estimated scf accuracy    <       0.00278507 Ry

     iteration #  8     ecut=    55.00 Ry     beta= 0.30
     Davidson diagonalization with overlap
     ethr =  2.06E-06,  avg # of iterations =  6.1

     negative rho (up, down):  1.727E-05 0.000E+00

     total cpu time spent up to now is       26.4 secs

     total energy              =   -1026.38457264 Ry
     estimated scf accuracy    <       0.00037170 Ry

     iteration #  9     ecut=    55.00 Ry     beta= 0.30
     Davidson diagonalization with overlap
     ethr =  2.75E-07,  avg # of iterations =  2.6

     negative rho (up, down):  1.919E-05 0.000E+00

     total cpu time spent up to now is       27.5 secs

     total energy              =   -1026.38461348 Ry
     estimated scf accuracy    <       0.00024219 Ry

     iteration # 10     ecut=    55.00 Ry     beta= 0.30
     Davidson diagonalization with overlap
     ethr =  1.79E-07,  avg # of iterations =  1.7

     negative rho (up, down):  2.035E-05 0.000E+00

     total cpu time spent up to now is       28.5 secs

     total energy              =   -1026.38462849 Ry
     estimated scf accuracy    <       0.00001386 Ry

     iteration # 11     ecut=    55.00 Ry     beta= 0.30
     Davidson diagonalization with overlap
     ethr =  1.03E-08,  avg # of iterations =  4.7

     negative rho (up, down):  1.900E-05 0.000E+00

     total cpu time spent up to now is       29.7 secs

     total energy              =   -1026.38463101 Ry
     estimated scf accuracy    <       0.00000208 Ry

     iteration # 12     ecut=    55.00 Ry     beta= 0.30
     Davidson diagonalization with overlap
     ethr =  1.54E-09,  avg # of iterations =  3.9

     negative rho (up, down):  1.655E-05 0.000E+00

     total cpu time spent up to now is       30.9 secs

     End of self-consistent calculation

          k = 0.0000 0.0000 0.0000 ( 21445 PWs)   bands (ev):

   -43.7884  -3.5467  -3.1072  -2.4855  -2.2106  -2.1817  -2.0610  -2.0437
    -1.9722  -1.8982  -1.8397  -1.8259  -1.7964  -1.6337  -1.5848  -1.1842
    -0.9148  -0.8943  -0.7816  -0.7236  -0.6942  -0.6920  -0.6720  -0.5976
    -0.5546  -0.5271  -0.5040  -0.4651  -0.4229  -0.4007  -0.3928  -0.3901
    -0.3768  -0.3528  -0.3102  -0.2896  -0.2466  -0.2396  -0.2357  -0.2028
    -0.1435  -0.1342  -0.0850  -0.0467  -0.0173   0.0028   0.0345   0.0968
     0.1883   0.2382   0.2987   0.4247   0.5153   0.5877   0.7211   0.7918
     0.8263   0.9471   0.9807   1.0014   1.0649   1.0809   1.1136   1.1279
     1.2161   1.3995   2.5045   3.6243   4.0037   4.3450   4.8716   6.0040
     6.4345   7.0034   7.1249   7.4694   7.5914   7.7264   7.8925   8.2036
     8.2525   8.4701

          k = 0.0000 0.0777 0.0000 ( 21497 PWs)   bands (ev):

   -43.7885  -3.4251  -2.9939  -2.4063  -2.1814  -2.1511  -2.1274  -2.0643
    -2.0010  -1.9339  -1.8893  -1.7930  -1.6350  -1.5416  -1.3880  -1.1047
    -0.9228  -0.9019  -0.8191  -0.7811  -0.7396  -0.7242  -0.7112  -0.6503
    -0.6469  -0.6382  -0.6043  -0.5545  -0.5235  -0.5092  -0.4873  -0.4791
    -0.4283  -0.3679  -0.3678  -0.3308  -0.2304  -0.1966  -0.1469  -0.1349
    -0.0878  -0.0682  -0.0401   0.0633   0.0720   0.1369   0.1814   0.2071
     0.2792   0.3060   0.4228   0.4990   0.5202   0.6450   0.7075   0.7696
     0.8107   0.9315   0.9372   0.9813   1.0312   1.0498   1.0859   1.1007
     1.1807   1.4309   2.5596   3.2391   3.6876   3.9835   4.4339   4.9790
     5.9622   6.4183   6.8272   7.1032   7.4777   7.8551   8.4426   8.5282
     8.7257   8.9181

          k = 0.0000 0.1554 0.0000 ( 21465 PWs)   bands (ev):

   -43.7884  -3.0772  -2.6733  -2.2595  -2.2165  -2.1112  -2.0899  -2.0317
    -1.9549  -1.8384  -1.8229  -1.6920  -1.5566  -1.3317  -1.2531  -1.1932
    -1.1849  -1.0269  -0.9695  -0.8902  -0.8232  -0.8103  -0.7743  -0.7474
    -0.7135  -0.7032  -0.6092  -0.5788  -0.5650  -0.5527  -0.4943  -0.4900
    -0.4613  -0.4279  -0.3419  -0.3193  -0.1977  -0.1966  -0.0999  -0.0483
     0.0026   0.1139   0.1582   0.1832   0.1981   0.2210   0.3106   0.3294
     0.4187   0.4592   0.5247   0.5468   0.6485   0.6718   0.7174   0.7875
     0.8106   0.8822   0.9105   0.9480   0.9480   0.9668   1.0425   1.0713
     1.1128   1.5806   1.9244   2.6427   2.7994   3.5170   3.9228   4.4477
     4.6469   5.4193   6.0334   6.7008   7.2262   7.8967   8.1824   8.7378
     9.1855   9.5234

          k = 0.0000 0.2331 0.0000 ( 21389 PWs)   bands (ev):

   -43.7883  -2.5797  -2.2674  -2.2125  -2.1117  -2.0372  -1.9980  -1.9295
    -1.8508  -1.7396  -1.7176  -1.5641  -1.5218  -1.4476  -1.4285  -1.3363
    -1.2484  -1.2069  -1.0441  -1.0200  -0.9352  -0.9020  -0.8229  -0.7595
    -0.7454  -0.7185  -0.6684  -0.6566  -0.6033  -0.5087  -0.4176  -0.4132
    -0.3018  -0.2806  -0.2687  -0.2459  -0.2058  -0.1651  -0.0397  -0.0199
     0.0677   0.1801   0.1985   0.3399   0.3419   0.3725   0.3950   0.4266
     0.4629   0.4823   0.5058   0.5498   0.5992   0.7588   0.7624   0.7736
     0.7855   0.8103   0.8324   0.8887   0.9245   0.9654   1.0563   1.0581
     1.0772   1.1581   1.5603   2.0905   2.2933   3.0949   3.2931   4.0847
     4.3035   4.7930   5.1385   6.1772   7.1039   7.9733   8.6042   8.7542
     9.3055   9.5172

          k = 0.0000-0.3108 0.0000 ( 21400 PWs)   bands (ev):

   -43.7884  -2.1836  -2.1366  -2.1342  -2.1278  -1.9794  -1.9761  -1.8546
    -1.8066  -1.7468  -1.7005  -1.5408  -1.4737  -1.4683  -1.4041  -1.3606
    -1.3433  -1.2082  -1.1764  -1.0856  -1.0706  -0.9533  -0.8952  -0.7563
    -0.7282  -0.6985  -0.6507  -0.5194  -0.5051  -0.5031  -0.4627  -0.4484
    -0.4084  -0.2669  -0.2337  -0.1896  -0.1117  -0.0373  -0.0135   0.0320
     0.0436   0.0565   0.0900   0.1814   0.2310   0.3608   0.5147   0.5274
     0.5935   0.6076   0.6093   0.6179   0.6218   0.6340   0.6551   0.7309
     0.7440   0.7907   0.8304   0.9170   0.9210   0.9237   0.9417   1.0589
     1.0640   1.3312   1.3900   1.9686   2.0314   2.9075   3.0212   3.9452
     4.0866   4.6344   4.9930   5.9170   6.9241   8.2795   8.6951   9.0342
     9.2021   9.3370

          k = 0.1250-0.0000 0.0000 ( 21499 PWs)   bands (ev):

   -43.7871  -3.2427  -2.8211  -2.2194  -2.0503  -1.9811  -1.8640  -1.8308
    -1.8170  -1.7967  -1.7201  -1.6537  -1.6173  -1.5931  -1.4378  -1.2427
    -1.1080  -1.0235  -0.9265  -0.8413  -0.8129  -0.7610  -0.7458  -0.6581
    -0.5573  -0.5312  -0.5022  -0.4997  -0.4817  -0.4661  -0.4137  -0.3700
    -0.3485  -0.3385  -0.3206  -0.3046  -0.2863  -0.2463  -0.2348  -0.2267
    -0.2028  -0.1562  -0.1423  -0.1068  -0.0628   0.0189   0.0386   0.0721
     0.1102   0.2038   0.3341   0.4257   0.4709   0.5759   0.7141   0.7222
     0.7814   0.9796   0.9856   0.9963   1.0086   1.0319   1.0514   1.0587
     1.1402   1.8700   2.9459   3.9880   4.7052   4.8413   5.5138   6.5101
     6.7223   7.2732   7.3968   7.7998   7.8542   7.8670   8.0168   8.3848
     8.5303   8.7459

          k = 0.1250 0.0777 0.0000 ( 21491 PWs)   bands (ev):

   -43.7871  -3.1272  -2.7171  -2.1520  -2.0163  -1.9975  -1.9374  -1.8751
    -1.8041  -1.7833  -1.7336  -1.5988  -1.4687  -1.4411  -1.3525  -1.1977
    -1.1173  -1.0472  -0.9653  -0.9204  -0.8842  -0.8087  -0.7657  -0.6817
    -0.6291  -0.6048  -0.5820  -0.5759  -0.5595  -0.5002  -0.4842  -0.4356
    -0.3888  -0.3744  -0.3504  -0.2870  -0.2315  -0.1861  -0.1675  -0.1516
    -0.1215  -0.0867  -0.0622  -0.0424  -0.0053   0.0542   0.1107   0.1417
     0.2030   0.2413   0.4015   0.4363   0.4785   0.5563   0.6937   0.7448
     0.7890   0.8669   0.9449   0.9550   0.9880   0.9947   1.0177   1.0829
     1.1413   1.9412   3.0258   3.9507   4.0749   4.5292   4.8614   5.4020
     6.3131   6.7268   7.1699   7.3789   7.8166   8.1367   8.7343   8.7828
     8.9042   9.1077

          k = 0.1250 0.1554 0.0000 ( 21468 PWs)   bands (ev):

   -43.7871  -2.7976  -2.4254  -2.1072  -2.0079  -1.9296  -1.9066  -1.8247
    -1.7540  -1.6808  -1.6506  -1.4917  -1.3965  -1.3099  -1.2891  -1.1806
    -1.1304  -1.0681  -1.0377  -0.9482  -0.9398  -0.8414  -0.8149  -0.7704
    -0.7639  -0.7294  -0.7162  -0.6934  -0.6414  -0.5871  -0.5261  -0.4809
    -0.4621  -0.3831  -0.3744  -0.3312  -0.2737  -0.1783  -0.1290  -0.1061
    -0.0734   0.0282   0.1191   0.1540   0.2008   0.2281   0.2487   0.3415
     0.3601   0.3895   0.4401   0.4763   0.5002   0.5791   0.6302   0.6667
     0.6906   0.7626   0.8214   0.8459   0.9323   0.9476   1.0269   1.0979
     1.2639   2.1540   2.6478   3.1576   3.2908   3.9105   4.3348   4.7956
     5.1258   5.7812   6.4530   7.0408   7.4994   8.1725   8.4491   9.0123
     9.3953   9.7591

          k = 0.1250 0.2331 0.0000 ( 21413 PWs)   bands (ev):

   -43.7870  -2.3253  -2.1004  -2.0171  -1.9527  -1.8252  -1.8009  -1.7541
    -1.6912  -1.5780  -1.5384  -1.5113  -1.4413  -1.3355  -1.2824  -1.2024
    -1.1723  -1.0718  -1.0527  -0.9854  -0.9577  -0.9351  -0.8893  -0.8414
    -0.8222  -0.7719  -0.7114  -0.6835  -0.6135  -0.5643  -0.5356  -0.5106
    -0.4826  -0.4633  -0.3889  -0.3259  -0.2927  -0.2382  -0.1810  -0.1465
    -0.0407   0.0764   0.1539   0.1817   0.2544   0.2726   0.3135   0.3574
     0.4238   0.4631   0.4953   0.5674   0.5940   0.6566   0.6822   0.7041
     0.7590   0.8024   0.8284   0.8746   0.9201   0.9957   1.0553   1.1251
     1.5310   1.6450   1.9942   2.5901   2.6655   3.4606   3.7774   4.4773
     4.7424   5.3323   5.5363   6.5851   7.3978   8.2391   8.8686   8.9584
     9.5569   9.7390

          k = 0.1250-0.3108 0.0000 ( 21356 PWs)   bands (ev):

   -43.7869  -1.9719  -1.9685  -1.9382  -1.8908  -1.8443  -1.8317  -1.6832
    -1.6571  -1.6152  -1.5814  -1.3670  -1.3479  -1.3274  -1.2665  -1.2343
    -1.2229  -1.1276  -1.0968  -1.0771  -1.0237  -1.0119  -0.9595  -0.9111
    -0.7539  -0.7377  -0.6984  -0.6363  -0.6299  -0.5535  -0.5489  -0.5148
    -0.4225  -0.3762  -0.3574  -0.3086  -0.2211  -0.1993  -0.1633  -0.1531
    -0.1262  -0.1042   0.0062   0.0275   0.1158   0.1970   0.2889   0.4116
     0.4299   0.5178   0.6023   0.6186   0.6229   0.7283   0.7451   0.8443
     0.8768   0.9200   0.9468   0.9871   1.0146   1.0453   1.0516   1.1642
     1.1977   1.6018   1.6549   2.3227   2.3920   3.3531   3.4604   4.4152
     4.5431   5.1422   5.4079   6.3704   7.2398   8.4967   8.9433   9.2640
     9.4356   9.5959

          k = 0.1250-0.2331 0.0000 ( 21413 PWs)   bands (ev):

   -43.7870  -2.3253  -2.1004  -2.0171  -1.9527  -1.8252  -1.8009  -1.7541
    -1.6912  -1.5780  -1.5384  -1.5113  -1.4413  -1.3355  -1.2824  -1.2024
    -1.1723  -1.0718  -1.0527  -0.9854  -0.9577  -0.9351  -0.8893  -0.8414
    -0.8222  -0.7719  -0.7114  -0.6835  -0.6135  -0.5643  -0.5356  -0.5106
    -0.4826  -0.4633  -0.3889  -0.3259  -0.2927  -0.2382  -0.1810  -0.1465
    -0.0407   0.0764   0.1539   0.1817   0.2544   0.2726   0.3135   0.3574
     0.4238   0.4631   0.4953   0.5674   0.5940   0.6566   0.6822   0.7041
     0.7590   0.8024   0.8284   0.8746   0.9201   0.9957   1.0553   1.1251
     1.5310   1.6450   1.9942   2.5901   2.6655   3.4606   3.7774   4.4773
     4.7424   5.3323   5.5363   6.5851   7.3978   8.2392   8.8686   8.9583
     9.5568   9.7386

          k = 0.1250-0.1554 0.0000 ( 21468 PWs)   bands (ev):

   -43.7871  -2.7976  -2.4254  -2.1072  -2.0079  -1.9296  -1.9066  -1.8247
    -1.7540  -1.6808  -1.6506  -1.4917  -1.3965  -1.3099  -1.2891  -1.1806
    -1.1304  -1.0681  -1.0377  -0.9482  -0.9398  -0.8414  -0.8149  -0.7704
    -0.7639  -0.7294  -0.7162  -0.6934  -0.6414  -0.5871  -0.5261  -0.4809
    -0.4621  -0.3831  -0.3744  -0.3312  -0.2737  -0.1783  -0.1290  -0.1061
    -0.0734   0.0282   0.1191   0.1540   0.2008   0.2281   0.2487   0.3415
     0.3601   0.3895   0.4401   0.4763   0.5002   0.5791   0.6302   0.6667
     0.6906   0.7626   0.8214   0.8459   0.9323   0.9476   1.0269   1.0979
     1.2639   2.1540   2.6478   3.1576   3.2908   3.9105   4.3348   4.7956
     5.1258   5.7812   6.4530   7.0408   7.4994   8.1725   8.4491   9.0123
     9.3950   9.7589

          k = 0.1250-0.0777 0.0000 ( 21491 PWs)   bands (ev):

   -43.7871  -3.1272  -2.7171  -2.1520  -2.0163  -1.9975  -1.9374  -1.8751
    -1.8041  -1.7833  -1.7336  -1.5988  -1.4687  -1.4411  -1.3525  -1.1977
    -1.1173  -1.0472  -0.9653  -0.9204  -0.8842  -0.8087  -0.7657  -0.6817
    -0.6291  -0.6048  -0.5820  -0.5759  -0.5595  -0.5002  -0.4842  -0.4356
    -0.3888  -0.3744  -0.3504  -0.2870  -0.2315  -0.1861  -0.1675  -0.1516
    -0.1215  -0.0867  -0.0622  -0.0424  -0.0053   0.0542   0.1107   0.1417
     0.2030   0.2413   0.4015   0.4363   0.4785   0.5563   0.6937   0.7448
     0.7890   0.8669   0.9448   0.9550   0.9880   0.9947   1.0177   1.0829
     1.1413   1.9412   3.0258   3.9507   4.0749   4.5292   4.8614   5.4020
     6.3131   6.7268   7.1699   7.3789   7.8166   8.1367   8.7345   8.7828
     8.9043   9.1077

          k = 0.2500-0.0000 0.0000 ( 21417 PWs)   bands (ev):

   -43.7837  -2.4677  -2.1880  -1.8316  -1.8270  -1.8022  -1.7903  -1.6924
    -1.6787  -1.5879  -1.5264  -1.4969  -1.4734  -1.4357  -1.2386  -1.1939
    -1.1614  -1.0386  -0.9899  -0.9760  -0.9238  -0.8376  -0.8343  -0.8131
    -0.7852  -0.7327  -0.7259  -0.6174  -0.5688  -0.5601  -0.5123  -0.4852
    -0.4376  -0.4306  -0.3729  -0.3338  -0.2761  -0.2354  -0.1533  -0.1199
    -0.0955  -0.0519  -0.0387   0.0754   0.1726   0.2291   0.2535   0.2853
     0.3153   0.3459   0.3627   0.4750   0.4911   0.6327   0.7095   0.7325
     0.8887   0.9693   0.9706   0.9973   1.0058   1.0419   1.0490   1.1079
     1.6866   2.7701   3.8934   4.8584   5.8555   6.5141   7.0267   7.4457
     7.7745   7.9880   8.1188   8.1565   8.4073   8.6430   8.8404   8.9507
     9.2226   9.2443

          k = 0.2500 0.0777 0.0000 ( 21426 PWs)   bands (ev):

   -43.7837  -2.3941  -2.1544  -1.8570  -1.8121  -1.7821  -1.7459  -1.6850
    -1.6405  -1.6108  -1.5456  -1.4431  -1.4055  -1.3372  -1.2346  -1.2083
    -1.1632  -1.0929  -1.0649  -1.0327  -0.9932  -0.9455  -0.8264  -0.7734
    -0.7322  -0.6890  -0.6535  -0.6174  -0.5760  -0.5349  -0.4974  -0.4787
    -0.4702  -0.3899  -0.3552  -0.3271  -0.2830  -0.2021  -0.1408  -0.1078
    -0.1003  -0.0151   0.0480   0.1421   0.2124   0.2257   0.2423   0.2750
     0.2987   0.3476   0.3820   0.4974   0.5184   0.6381   0.7378   0.7572
     0.8454   0.8623   0.8914   0.9593   1.0015   1.0310   1.0423   1.0664
     1.7455   2.8509   3.9869   4.9449   5.3514   5.7271   6.0154   6.4088
     7.1847   7.5400   7.9836   8.2132   8.6932   8.9003   9.2812   9.4506
     9.5557   9.6410

          k = 0.2500 0.1554 0.0000 ( 21427 PWs)   bands (ev):

   -43.7837  -2.1968  -2.0610  -1.8845  -1.7971  -1.7018  -1.6591  -1.6498
    -1.6141  -1.5400  -1.4927  -1.3980  -1.3417  -1.3228  -1.2659  -1.2092
    -1.2047  -1.1332  -1.0691  -1.0425  -0.9427  -0.9234  -0.8650  -0.8284
    -0.7580  -0.7290  -0.6962  -0.6620  -0.5803  -0.5372  -0.4884  -0.4172
    -0.4148  -0.3678  -0.3158  -0.2895  -0.2500  -0.1669  -0.1036  -0.0913
    -0.0804   0.0427   0.0693   0.1659   0.2325   0.2709   0.3206   0.3725
     0.4150   0.4374   0.4873   0.5327   0.5501   0.5908   0.6433   0.6636
     0.7304   0.8232   0.8486   0.8760   0.9346   1.0770   1.0816   1.1065
     1.9299   3.0948   3.8590   4.2145   4.2788   4.8376   5.2510   5.6559
     6.3724   6.6540   7.5226   7.8622   8.3163   8.9542   9.2159   9.7163
     9.9028  10.0186

          k = 0.2500 0.2331 0.0000 ( 21410 PWs)   bands (ev):

   -43.7837  -1.9516  -1.9160  -1.8346  -1.7638  -1.7123  -1.6796  -1.5972
    -1.5744  -1.5111  -1.4559  -1.4044  -1.3322  -1.2986  -1.2758  -1.2271
    -1.1640  -1.0902  -1.0258  -1.0084  -0.9722  -0.9281  -0.8875  -0.8280
    -0.7977  -0.7444  -0.6703  -0.6417  -0.5848  -0.5045  -0.4101  -0.3682
    -0.3591  -0.3217  -0.2979  -0.2725  -0.2340  -0.1961  -0.1466  -0.1286
    -0.0684  -0.0324   0.0122   0.0654   0.1398   0.2123   0.2332   0.2754
     0.3284   0.4346   0.5144   0.6268   0.6402   0.7272   0.7627   0.8398
     0.8659   0.9126   0.9411   0.9578   1.0340   1.1217   1.1338   1.4489
     2.3335   2.6024   2.8865   3.4665   3.5896   4.3440   4.7589   5.3540
     5.7326   6.4206   6.8263   7.6149   8.2467   9.0081   9.5321   9.6563
    10.2111  10.4368

          k = 0.2500-0.3108 0.0000 ( 21358 PWs)   bands (ev):

   -43.7836  -1.7840  -1.7778  -1.7605  -1.7530  -1.6979  -1.6950  -1.6826
    -1.6656  -1.6015  -1.5394  -1.3136  -1.2309  -1.2135  -1.1874  -1.1771
    -1.1245  -1.1193  -1.0939  -1.0665  -1.0644  -0.9572  -0.9464  -0.8739
    -0.7074  -0.6468  -0.5934  -0.5370  -0.5310  -0.4782  -0.4531  -0.3890
    -0.3413  -0.3158  -0.3040  -0.2265  -0.1933  -0.1744  -0.1504  -0.1348
    -0.1101  -0.0665  -0.0265  -0.0061   0.0201   0.0325   0.0711   0.1846
     0.2439   0.4730   0.5915   0.6272   0.6542   0.7524   0.7589   0.9424
     0.9481   1.0483   1.0516   1.0624   1.0705   1.5483   1.5866   1.7731
     1.8205   2.2833   2.3498   3.1563   3.2478   4.2965   4.4422   5.2884
     5.6350   6.1840   6.6529   7.5729   8.1771   9.0552   9.6594   9.9605
    10.1659  10.3366

          k = 0.2500-0.2331 0.0000 ( 21410 PWs)   bands (ev):

   -43.7837  -1.9516  -1.9160  -1.8346  -1.7638  -1.7123  -1.6796  -1.5972
    -1.5744  -1.5111  -1.4559  -1.4044  -1.3322  -1.2986  -1.2758  -1.2271
    -1.1640  -1.0902  -1.0258  -1.0084  -0.9722  -0.9281  -0.8875  -0.8280
    -0.7977  -0.7444  -0.6703  -0.6417  -0.5848  -0.5045  -0.4101  -0.3682
    -0.3591  -0.3217  -0.2979  -0.2725  -0.2340  -0.1961  -0.1466  -0.1286
    -0.0684  -0.0324   0.0122   0.0654   0.1398   0.2123   0.2332   0.2754
     0.3284   0.4346   0.5144   0.6268   0.6402   0.7272   0.7627   0.8398
     0.8659   0.9126   0.9411   0.9578   1.0340   1.1217   1.1338   1.4489
     2.3335   2.6024   2.8865   3.4665   3.5896   4.3440   4.7589   5.3540
     5.7326   6.4206   6.8263   7.6149   8.2467   9.0081   9.5321   9.6559
    10.2111  10.4360

          k = 0.2500-0.1554 0.0000 ( 21427 PWs)   bands (ev):

   -43.7837  -2.1968  -2.0610  -1.8845  -1.7971  -1.7018  -1.6591  -1.6498
    -1.6141  -1.5400  -1.4927  -1.3980  -1.3417  -1.3228  -1.2659  -1.2092
    -1.2047  -1.1332  -1.0691  -1.0425  -0.9427  -0.9234  -0.8650  -0.8284
    -0.7580  -0.7290  -0.6962  -0.6620  -0.5803  -0.5372  -0.4884  -0.4172
    -0.4148  -0.3678  -0.3158  -0.2895  -0.2500  -0.1669  -0.1036  -0.0913
    -0.0804   0.0427   0.0693   0.1659   0.2325   0.2709   0.3206   0.3725
     0.4150   0.4374   0.4873   0.5327   0.5501   0.5908   0.6433   0.6636
     0.7304   0.8232   0.8486   0.8760   0.9346   1.0770   1.0816   1.1065
     1.9299   3.0948   3.8590   4.2145   4.2788   4.8376   5.2510   5.6559
     6.3724   6.6541   7.5226   7.8622   8.3163   8.9542   9.2159   9.7165
     9.9029  10.0190

          k = 0.2500-0.0777 0.0000 ( 21426 PWs)   bands (ev):

   -43.7837  -2.3941  -2.1544  -1.8570  -1.8121  -1.7821  -1.7459  -1.6850
    -1.6405  -1.6108  -1.5456  -1.4431  -1.4055  -1.3372  -1.2346  -1.2083
    -1.1632  -1.0929  -1.0649  -1.0327  -0.9932  -0.9455  -0.8264  -0.7734
    -0.7322  -0.6890  -0.6535  -0.6174  -0.5760  -0.5349  -0.4974  -0.4787
    -0.4702  -0.3899  -0.3552  -0.3271  -0.2830  -0.2021  -0.1408  -0.1078
    -0.1003  -0.0151   0.0480   0.1421   0.2124   0.2257   0.2424   0.2750
     0.2987   0.3476   0.3820   0.4974   0.5184   0.6381   0.7378   0.7572
     0.8454   0.8623   0.8914   0.9593   1.0015   1.0310   1.0423   1.0664
     1.7455   2.8509   3.9869   4.9449   5.3514   5.7271   6.0154   6.4088
     7.1847   7.5400   7.9836   8.2131   8.6929   8.9002   9.2796   9.4509
     9.5511   9.6383

          k = 0.3750-0.0000 0.0000 ( 21365 PWs)   bands (ev):

   -43.7803  -2.0487  -2.0410  -1.8705  -1.8468  -1.8237  -1.8054  -1.7969
    -1.7884  -1.7378  -1.7022  -1.6176  -1.5774  -1.4796  -1.4704  -1.4227
    -1.2986  -1.1426  -1.0622  -0.9583  -0.8073  -0.8018  -0.7848  -0.7380
    -0.7164  -0.7119  -0.6693  -0.5777  -0.5558  -0.4566  -0.4157  -0.3885
    -0.3675  -0.3427  -0.2994  -0.2611  -0.2260  -0.2104  -0.1273  -0.0466
    -0.0015   0.1822   0.2579   0.3087   0.4514   0.5646   0.6369   0.6716
     0.7242   0.7622   0.7848   0.8673   0.8739   0.8869   0.9671   0.9865
     0.9894   1.0200   1.0677   1.0849   1.1304   1.4290   1.5347   1.9889
     2.8852   4.0297   5.1060   6.0467   6.1961   6.5697   7.1304   7.4797
     7.7883   8.4194   8.5933   8.7049   8.8368   8.9111   9.0007   9.4341
     9.4896   9.8129

          k = 0.3750 0.0777 0.0000 ( 21373 PWs)   bands (ev):

   -43.7803  -2.0548  -2.0506  -1.9656  -1.9605  -1.8816  -1.8675  -1.7760
    -1.7689  -1.6958  -1.6135  -1.4919  -1.4410  -1.4376  -1.3961  -1.3344
    -1.2609  -1.1118  -1.0519  -0.9855  -0.9293  -0.8954  -0.8753  -0.8229
    -0.8007  -0.7243  -0.7044  -0.6587  -0.6469  -0.5177  -0.4754  -0.4400
    -0.3712  -0.3111  -0.2641  -0.1829  -0.1218  -0.0524   0.0258   0.0849
     0.1338   0.2593   0.3276   0.3985   0.5057   0.6052   0.6412   0.7049
     0.7507   0.7702   0.7903   0.8395   0.8488   0.8676   0.9054   0.9209
     0.9594   1.0141   1.0223   1.0265   1.0598   1.4831   1.5446   1.9933
     2.9278   4.1014   5.1945   6.1463   6.2751   6.6094   6.9458   7.0559
     7.1698   7.4640   7.5879   7.7974   8.7115   9.0855   9.3664   9.6067
     9.7826   9.9182

          k = 0.3750 0.1554 0.0000 ( 21345 PWs)   bands (ev):

   -43.7802  -2.1446  -2.1366  -1.9753  -1.9625  -1.8603  -1.8589  -1.7318
    -1.7106  -1.5933  -1.5692  -1.4827  -1.3567  -1.3485  -1.3045  -1.2703
    -1.2571  -1.1950  -1.1819  -1.1794  -1.0967  -1.0090  -0.9564  -0.8890
    -0.8497  -0.7724  -0.6876  -0.6128  -0.5512  -0.5238  -0.4267  -0.3933
    -0.2980  -0.1700  -0.1209  -0.0986   0.0024   0.0284   0.0748   0.2199
     0.3142   0.3779   0.4770   0.5308   0.5649   0.6198   0.6300   0.6566
     0.6730   0.6959   0.7399   0.7904   0.8134   0.8405   0.8731   0.9020
     0.9233   0.9600   1.0062   1.0787   1.1030   1.6049   1.6486   2.1064
     3.1068   4.3219   5.3394   5.4318   5.5985   5.9945   6.3746   6.4660
     6.4893   6.8379   7.2523   8.0327   8.7197   8.9457   9.1790   9.4550
     9.7869   9.9189

          k = 0.3750 0.2331 0.0000 ( 21344 PWs)   bands (ev):

   -43.7802  -2.1323  -2.1273  -1.9470  -1.9395  -1.8219  -1.8178  -1.7236
    -1.6608  -1.6025  -1.5894  -1.5159  -1.4848  -1.4426  -1.4348  -1.4008
    -1.3424  -1.2166  -1.2107  -1.1337  -1.0777  -1.0485  -0.9655  -0.8820
    -0.8059  -0.6785  -0.6143  -0.4875  -0.4298  -0.3988  -0.3132  -0.2903
    -0.2265  -0.1382  -0.0358  -0.0014   0.0856   0.1360   0.2286   0.2524
     0.2719   0.2998   0.3190   0.3401   0.4055   0.4459   0.5018   0.6265
     0.7262   0.7602   0.8150   0.8249   0.8838   0.9030   0.9061   0.9358
     0.9652   0.9895   1.0279   1.0996   1.1250   1.9869   2.0897   2.5830
     3.5158   3.9545   4.1646   4.6270   4.7608   5.4043   5.8536   6.1766
     6.7893   6.8750   7.2978   8.4408   8.7288   8.9198   9.1224   9.3476
     9.5691   9.7649

          k = 0.3750-0.3108 0.0000 ( 21340 PWs)   bands (ev):

   -43.7802  -2.0087  -2.0027  -1.9980  -1.9957  -1.8276  -1.8206  -1.8153
    -1.7991  -1.6669  -1.6093  -1.4976  -1.4772  -1.3945  -1.3877  -1.3659
    -1.3562  -1.2416  -1.2165  -1.2041  -1.1426  -1.0313  -0.9420  -0.9284
    -0.8251  -0.5515  -0.5343  -0.4128  -0.3793  -0.2414  -0.2303  -0.1655
    -0.1262  -0.0648  -0.0366  -0.0145   0.0053   0.0119   0.0638   0.0880
     0.1318   0.2896   0.3121   0.3268   0.3468   0.5651   0.5951   0.6820
     0.7383   0.7390   0.7510   0.8214   0.8923   0.9562   0.9675   0.9899
     0.9950   1.0129   1.0139   1.0448   1.0536   2.7607   2.7984   2.9329
     2.9939   3.4207   3.5139   4.2738   4.4138   5.3116   5.5874   6.1505
     6.7515   7.0518   7.4854   8.5848   8.6634   8.9077   9.0953   9.3345
     9.4468   9.5305

          k = 0.3750-0.2331 0.0000 ( 21344 PWs)   bands (ev):

   -43.7802  -2.1323  -2.1273  -1.9470  -1.9395  -1.8219  -1.8178  -1.7236
    -1.6608  -1.6025  -1.5894  -1.5159  -1.4848  -1.4426  -1.4348  -1.4008
    -1.3424  -1.2166  -1.2107  -1.1337  -1.0777  -1.0485  -0.9655  -0.8820
    -0.8059  -0.6785  -0.6143  -0.4875  -0.4298  -0.3988  -0.3132  -0.2903
    -0.2265  -0.1382  -0.0358  -0.0014   0.0856   0.1360   0.2286   0.2524
     0.2719   0.2998   0.3190   0.3401   0.4055   0.4459   0.5018   0.6265
     0.7262   0.7602   0.8150   0.8249   0.8838   0.9030   0.9061   0.9358
     0.9652   0.9895   1.0279   1.0996   1.1250   1.9869   2.0897   2.5830
     3.5158   3.9545   4.1646   4.6270   4.7608   5.4043   5.8536   6.1766
     6.7893   6.8750   7.2978   8.4408   8.7290   8.9198   9.1223   9.3476
     9.5690   9.7647

          k = 0.3750-0.1554 0.0000 ( 21345 PWs)   bands (ev):

   -43.7802  -2.1446  -2.1366  -1.9753  -1.9625  -1.8603  -1.8589  -1.7318
    -1.7106  -1.5933  -1.5692  -1.4827  -1.3567  -1.3485  -1.3045  -1.2703
    -1.2571  -1.1950  -1.1819  -1.1794  -1.0967  -1.0090  -0.9564  -0.8890
    -0.8497  -0.7724  -0.6876  -0.6128  -0.5512  -0.5238  -0.4267  -0.3933
    -0.2980  -0.1700  -0.1209  -0.0986   0.0024   0.0284   0.0748   0.2199
     0.3142   0.3779   0.4770   0.5308   0.5649   0.6198   0.6300   0.6566
     0.6730   0.6959   0.7399   0.7904   0.8134   0.8405   0.8731   0.9020
     0.9233   0.9600   1.0062   1.0787   1.1030   1.6049   1.6486   2.1064
     3.1068   4.3219   5.3394   5.4318   5.5985   5.9945   6.3746   6.4660
     6.4893   6.8379   7.2523   8.0327   8.7198   8.9457   9.1790   9.4550
     9.7870   9.9203

          k = 0.3750-0.0777 0.0000 ( 21373 PWs)   bands (ev):

   -43.7803  -2.0548  -2.0506  -1.9656  -1.9605  -1.8816  -1.8675  -1.7759
    -1.7689  -1.6958  -1.6135  -1.4919  -1.4410  -1.4376  -1.3961  -1.3344
    -1.2609  -1.1118  -1.0519  -0.9855  -0.9293  -0.8954  -0.8753  -0.8229
    -0.8007  -0.7243  -0.7044  -0.6587  -0.6469  -0.5177  -0.4754  -0.4400
    -0.3712  -0.3111  -0.2641  -0.1829  -0.1218  -0.0524   0.0258   0.0849
     0.1338   0.2593   0.3276   0.3985   0.5057   0.6052   0.6412   0.7049
     0.7507   0.7702   0.7903   0.8395   0.8488   0.8676   0.9054   0.9209
     0.9594   1.0141   1.0223   1.0265   1.0598   1.4831   1.5446   1.9933
     2.9278   4.1014   5.1945   6.1463   6.2751   6.6094   6.9458   7.0559
     7.1698   7.4640   7.5879   7.7974   8.7114   9.0855   9.3665   9.6065
     9.7823   9.9152

          k =-0.5000 0.0000 0.0000 ( 21294 PWs)   bands (ev):

   -43.7788  -2.1491  -2.1422  -1.9024  -1.8913  -1.8795  -1.8596  -1.8092
    -1.8006  -1.7987  -1.7913  -1.7332  -1.6602  -1.6456  -1.5438  -1.4532
    -1.3434  -1.2890  -1.1028  -1.0757  -0.8332  -0.8170  -0.7921  -0.7866
    -0.7233  -0.6225  -0.5727  -0.4452  -0.4444  -0.3924  -0.3888  -0.3853
    -0.3481  -0.2391  -0.2277  -0.1986  -0.1853  -0.1284  -0.0478   0.1395
     0.1600   0.2496   0.3431   0.4912   0.5060   0.6430   0.6500   0.7765
     0.8642   0.9299   1.0006   1.0209   1.0266   1.0317   1.0493   1.0535
     1.0750   1.0937   1.0951   1.0958   1.1407   3.3958   3.3990   3.6005
     3.6019   3.9159   4.0205   4.7721   5.6878   5.9683   6.4967   6.8562
     7.5282   8.1638   8.2006   9.3057   9.8573  10.1356  10.5251  10.5289
    10.6280  10.6556

          k =-0.5000 0.0777 0.0000 ( 21286 PWs)   bands (ev):

   -43.7788  -2.1184  -2.1147  -2.0880  -2.0867  -1.9273  -1.9195  -1.8614
    -1.8462  -1.7429  -1.6475  -1.5482  -1.5213  -1.5072  -1.5056  -1.3974
    -1.2564  -1.2149  -1.0729  -1.0165  -1.0067  -0.9743  -0.8900  -0.8053
    -0.7829  -0.7363  -0.7336  -0.6733  -0.5983  -0.5149  -0.3609  -0.2938
    -0.2881  -0.1870  -0.1829  -0.1395  -0.1337   0.0159   0.1355   0.2371
     0.2838   0.3844   0.4192   0.5297   0.5980   0.6979   0.7574   0.7995
     0.8503   0.9039   0.9134   0.9410   0.9703   1.0000   1.0157   1.0627
     1.0675   1.0846   1.0921   1.1020   1.1064   3.4716   3.4748   3.6529
     3.6542   3.9446   4.0586   4.7960   5.6808   5.9640   6.4876   6.8302
     7.4974   8.0335   8.1576   9.0716   9.3095   9.4001   9.6045   9.7707
     9.9363   9.9483

          k =-0.5000 0.1554 0.0000 ( 21260 PWs)   bands (ev):

   -43.7787  -2.2310  -2.2303  -2.0588  -2.0513  -1.9807  -1.9768  -1.8300
    -1.7806  -1.6914  -1.6498  -1.5314  -1.4095  -1.3648  -1.3099  -1.3003
    -1.2915  -1.2814  -1.2441  -1.2008  -1.1399  -1.1173  -0.9838  -0.9056
    -0.8847  -0.7598  -0.6990  -0.6620  -0.6224  -0.6066  -0.3480  -0.1687
    -0.1384  -0.0696  -0.0579  -0.0063   0.0503   0.1174   0.3093   0.3304
     0.4031   0.4472   0.5500   0.6022   0.6068   0.6912   0.7003   0.7365
     0.7552   0.7801   0.8628   0.8946   0.8965   1.0113   1.0609   1.0701
     1.0934   1.1347   1.1405   1.1496   1.1741   3.7098   3.7145   3.8296
     3.8467   4.0856   4.1862   4.8612   5.6269   5.8934   6.3608   6.5874
     7.0647   7.1476   7.5183   8.6146   8.7067   8.7684   9.0215   9.1857
     9.2141   9.4071

          k =-0.5000 0.2331 0.0000 ( 21256 PWs)   bands (ev):

   -43.7787  -2.2314  -2.2310  -2.0354  -2.0344  -1.9426  -1.9363  -1.7961
    -1.7747  -1.7076  -1.6805  -1.5723  -1.5390  -1.5338  -1.5080  -1.4543
    -1.4040  -1.3141  -1.3033  -1.1958  -1.1839  -1.0146  -1.0128  -0.8727
    -0.8016  -0.7396  -0.5773  -0.5096  -0.4351  -0.3329  -0.2306  -0.1511
    -0.1358   0.0170   0.0192   0.0757   0.2302   0.2525   0.2856   0.3329
     0.3583   0.3727   0.3947   0.4310   0.4316   0.6233   0.6551   0.7227
     0.8365   0.9019   0.9332   0.9349   0.9763   1.0369   1.0498   1.1402
     1.1451   1.1585   1.1680   1.1692   1.2081   4.1550   4.1673   4.2045
     4.2414   4.3994   4.4428   4.9353   5.3926   5.5311   5.7918   5.8692
     6.0693   6.2161   6.9693   8.2924   8.5091   8.7082   8.7790   8.9427
     8.9731   9.1631

          k =-0.5000-0.3108 0.0000 ( 21304 PWs)   bands (ev):

   -43.7787  -2.1102  -2.1083  -2.1011  -2.1009  -1.9157  -1.9094  -1.9037
    -1.8882  -1.7532  -1.7469  -1.6604  -1.5141  -1.4800  -1.4774  -1.4447
    -1.4446  -1.3261  -1.2946  -1.2646  -1.1853  -1.1060  -0.9738  -0.9706
    -0.8960  -0.4017  -0.3865  -0.2585  -0.2491  -0.2174  -0.1414  -0.1387
    -0.1314  -0.0243   0.0099   0.0127   0.0196   0.0552   0.0738   0.0927
     0.1906   0.4447   0.4638   0.4839   0.5049   0.8360   0.8504   0.8571
     0.8584   0.9328   0.9501   0.9848   1.0555   1.0576   1.0710   1.0733
     1.0733   1.0841   1.0926   1.1451   1.1783   4.4957   4.7523   4.7933
     4.7986   4.8040   4.8612   4.8835   4.8857   4.8885   4.9976   5.0561
     5.4908   5.9866   6.8113   8.1775   8.4805   8.5797   8.8221   8.9214
     8.9936   9.1303

     the Fermi energy is     4.0151 ev

!    total energy              =   -1026.38463136 Ry
     estimated scf accuracy    <       0.00000059 Ry
     smearing contrib. (-TS)   =      -0.00226344 Ry
     internal energy E=F+TS    =   -1026.38236792 Ry

     The total energy is F=E-TS. E is the sum of the following terms:
     one-electron contribution =  -14316.28592122 Ry
     hartree contribution      =    7262.09233116 Ry
     xc contribution           =    -271.55023998 Ry
     ewald contribution        =    6299.73270532 Ry
     DFT-D3 Dispersion         =      -0.37124319 Ry

     convergence has been achieved in  12 iterations

     negative rho (up, down):  1.655E-05 0.000E+00

     Forces acting on atoms (cartesian axes, Ry/au):

     atom    1 type  2   force =     0.00000101   -0.00951528    0.00505018
     atom    2 type  2   force =     0.00000054   -0.00161946    0.00735200
     atom    3 type  2   force =    -0.00000221   -0.00110138   -0.00279578
     atom    4 type  2   force =     0.00000003    0.00028187    0.00163169
     atom    5 type  2   force =     0.00000151    0.00043242   -0.00450724
     atom    6 type  2   force =    -0.00000068   -0.00001572   -0.00424710
     atom    7 type  2   force =     0.00000220   -0.00013522    0.00182711
     atom    8 type  2   force =     0.00000012    0.00005584   -0.00002552
     atom    9 type  2   force =     0.00000041    0.00001679    0.00492412
     atom   10 type  2   force =    -0.00000107    0.00004093    0.00118384
     atom   11 type  2   force =    -0.00000094   -0.00011175   -0.00359514
     atom   12 type  2   force =    -0.00000004    0.00017609    0.00693520
     atom   13 type  1   force =    -0.00000088    0.01149489   -0.01373335
     The non-local contrib.  to forces
     atom    1 type  2   force =     0.00000138   -0.00247255    0.05662723
     atom    2 type  2   force =    -0.00000076    0.00197533    0.00175633
     atom    3 type  2   force =    -0.00000231    0.00383719    0.01608785
     atom    4 type  2   force =     0.00000139    0.00070155    0.00929728
     atom    5 type  2   force =     0.00000153   -0.00105840   -0.00539600
     atom    6 type  2   force =    -0.00000136   -0.00001583   -0.00280761
     atom    7 type  2   force =     0.00000320    0.00036115    0.00062365
     atom    8 type  2   force =     0.00000100   -0.00025396   -0.00899179
     atom    9 type  2   force =     0.00000026   -0.00005094   -0.00132348
     atom   10 type  2   force =    -0.00000100    0.00006883   -0.02721988
     atom   11 type  2   force =    -0.00000162    0.00089147   -0.02030104
     atom   12 type  2   force =     0.00000091   -0.00096188   -0.10222680
     atom   13 type  1   force =     0.00000019    0.01993569    0.05339899
     The ionic contribution  to forces
     atom    1 type  2   force =    -0.00001484   -1.01607617  170.12975859
     atom    2 type  2   force =     0.00000784    0.37132797  153.67395060
     atom    3 type  2   force =    -0.00001115   -0.03696734  106.70136440
     atom    4 type  2   force =     0.00001638    0.01244594   85.22299912
     atom    5 type  2   force =     0.00000618   -0.00135045   39.97136749
     atom    6 type  2   force =    -0.00000307    0.00043642   17.69638580
     atom    7 type  2   force =    -0.00000004   -0.00004580  -26.62125681
     atom    8 type  2   force =     0.00000001    0.00001483  -48.78295777
     atom    9 type  2   force =     0.00000000   -0.00000156  -93.16544962
     atom   10 type  2   force =    -0.00000000    0.00000050 -115.12111650
     atom   11 type  2   force =    -0.00000000   -0.00000005 -160.68982317
     atom   12 type  2   force =     0.00000000    0.00000002 -177.66080311
     atom   13 type  1   force =    -0.00000132    0.67021569   48.64558098
     The local contribution  to forces
     atom    1 type  2   force =     0.00001419    1.00604408 -170.17268954
     atom    2 type  2   force =    -0.00000726   -0.37525706 -153.66106254
     atom    3 type  2   force =     0.00001112    0.03187114 -106.71723531
     atom    4 type  2   force =    -0.00001552   -0.01275490  -85.22820398
     atom    5 type  2   force =    -0.00000669    0.00286292  -39.97220494
     atom    6 type  2   force =     0.00000330   -0.00049167  -17.69915881
     atom    7 type  2   force =    -0.00000067   -0.00046053   26.62128104
     atom    8 type  2   force =     0.00000108    0.00028261   48.79037973
     atom    9 type  2   force =    -0.00000012    0.00007124   93.16834771
     atom   10 type  2   force =     0.00000006   -0.00004249  115.14402626
     atom   11 type  2   force =     0.00000036   -0.00101397  160.69664395
     atom   12 type  2   force =     0.00000010    0.00113249  177.75946542
     atom   13 type  1   force =     0.00000057   -0.67817468  -48.71133042
     The core correction contribution to forces
     atom    1 type  2   force =     0.00000004    0.00317267   -0.00251500
     atom    2 type  2   force =    -0.00000009   -0.00024502   -0.00162707
     atom    3 type  2   force =     0.00000006   -0.00003207   -0.00001372
     atom    4 type  2   force =    -0.00000002    0.00000057   -0.00080137
     atom    5 type  2   force =    -0.00000005    0.00000646    0.00088180
     atom    6 type  2   force =    -0.00000000   -0.00000039    0.00035368
     atom    7 type  2   force =    -0.00000002   -0.00000238    0.00000614
     atom    8 type  2   force =     0.00000007   -0.00000049   -0.00008093
     atom    9 type  2   force =    -0.00000002    0.00000011    0.00001838
     atom   10 type  2   force =     0.00000003    0.00000059    0.00004150
     atom   11 type  2   force =    -0.00000001    0.00000373    0.00403943
     atom   12 type  2   force =     0.00000003   -0.00000495    0.00610690
     atom   13 type  1   force =     0.00000000    0.00000000    0.00000000
     The Hubbard contrib.    to forces
     atom    1 type  2   force =     0.00000000    0.00000000    0.00000000
     atom    2 type  2   force =     0.00000000    0.00000000    0.00000000
     atom    3 type  2   force =     0.00000000    0.00000000    0.00000000
     atom    4 type  2   force =     0.00000000    0.00000000    0.00000000
     atom    5 type  2   force =     0.00000000    0.00000000    0.00000000
     atom    6 type  2   force =     0.00000000    0.00000000    0.00000000
     atom    7 type  2   force =     0.00000000    0.00000000    0.00000000
     atom    8 type  2   force =     0.00000000    0.00000000    0.00000000
     atom    9 type  2   force =     0.00000000    0.00000000    0.00000000
     atom   10 type  2   force =     0.00000000    0.00000000    0.00000000
     atom   11 type  2   force =     0.00000000    0.00000000    0.00000000
     atom   12 type  2   force =     0.00000000    0.00000000    0.00000000
     atom   13 type  1   force =     0.00000000    0.00000000    0.00000000
     The SCF correction term to forces
     atom    1 type  2   force =     0.00000046   -0.00010641   -0.00104527
     atom    2 type  2   force =     0.00000107    0.00006414   -0.00044686
     atom    3 type  2   force =     0.00000026    0.00017078    0.00050027
     atom    4 type  2   force =    -0.00000193   -0.00010517    0.00039556
     atom    5 type  2   force =     0.00000080   -0.00003899    0.00089013
     atom    6 type  2   force =     0.00000068    0.00004638    0.00099052
     atom    7 type  2   force =    -0.00000003    0.00000267    0.00090429
     atom    8 type  2   force =    -0.00000181    0.00000320    0.00113333
     atom    9 type  2   force =     0.00000053   -0.00001171    0.00120581
     atom   10 type  2   force =     0.00000008    0.00000384    0.00131667
     atom   11 type  2   force =     0.00000056   -0.00000258    0.00067527
     atom   12 type  2   force =    -0.00000085    0.00000076    0.00005563
     atom   13 type  1   force =    -0.00000010   -0.00007804   -0.00002912

     DFT-D3 dispersion contribution to forces:
     atom    1 type  2   force =     0.00000003   -0.00008655   -0.00502897
     atom    2 type  2   force =    -0.00000002    0.00050553   -0.00516159
     atom    3 type  2   force =     0.00000003    0.00000926   -0.00344239
     atom    4 type  2   force =    -0.00000004   -0.00001577   -0.00199806
     atom    5 type  2   force =    -0.00000001    0.00000122    0.00001114
     atom    6 type  2   force =     0.00000001   -0.00000029    0.00004619
     atom    7 type  2   force =    -0.00000000    0.00000002    0.00032567
     atom    8 type  2   force =     0.00000000   -0.00000000    0.00054878
     atom    9 type  2   force =    -0.00000000    0.00000000    0.00218219
     atom   10 type  2   force =     0.00000000   -0.00000000    0.00419266
     atom   11 type  2   force =     0.00000000   -0.00000000    0.00522728
     atom   12 type  2   force =     0.00000000    0.00000000    0.00439403
     atom   13 type  1   force =     0.00000001   -0.00041342   -0.00129692

     Total force =     0.025176     Total SCF correction =     0.003048
     SCF correction compared to forces is large: reduce conv_thr to get better values


     Computing stress (Cartesian axis) and pressure


     negative rho (up, down):  1.655E-05 0.000E+00
          total   stress  (Ry/bohr**3)                   (kbar)     P=      -17.18
  -0.00011738   0.00000000  -0.00000000          -17.27        0.00       -0.00
   0.00000000  -0.00010718   0.00001443            0.00      -15.77        2.12
  -0.00000000   0.00001443  -0.00012575           -0.00        2.12      -18.50


     BFGS Geometry Optimization
     Energy error            =      0.0E+00 Ry
     Gradient error          =      1.4E-02 Ry/Bohr

     number of scf cycles    =   1
     number of bfgs steps    =   0

     energy             new  =   -1026.3846313569 Ry

     new trust radius        =       0.0179091457 bohr
     new conv_thr            =       0.0000010000 Ry


ATOMIC_POSITIONS (angstrom)
Ag            0.7305819647        3.5212126334       23.3884716438
Ag            2.1917255579        1.1745591867       22.6546725411
Ag            2.1917266284        3.5256681146       20.9132787918
Ag            0.7305720387        1.1755669413       20.0928576149
Ag            0.7305755862        3.5264751821       18.4335658471
Ag            2.1917239941        1.1754071326       17.5901084113
Ag            2.1917255204        3.5261748037       15.9061325486
Ag            0.7305748472        1.1754450004       15.0615570785
Ag            0.7305750007        3.5262552431       13.3769861205
Ag            2.1917237869        1.1754371114       12.5314117547
Ag            2.1917238587        3.5261872195       10.8416926301
Ag            0.7305747651        1.1755086327       10.0036699497
Li            0.7305771451        0.3978889768       25.3785318254



     Writing config-only to output data dir ./Ag_mp-10597_100_hollow_1/Ag_mp-10597_100_hollow_1.save/
     NEW-OLD atomic charge density approx. for the potential

     negative rho (up, down):  1.666E-05 0.000E+00

     total cpu time spent up to now is       33.7 secs

     per-process dynamical memory:   190.3 Mb

     Self-consistent Calculation

     iteration #  1     ecut=    55.00 Ry     beta= 0.30
     Davidson diagonalization with overlap
     ethr =  1.00E-06,  avg # of iterations =  3.3

     negative rho (up, down):  1.664E-05 0.000E+00

     total cpu time spent up to now is       35.5 secs

     total energy              =   -1026.38484279 Ry
     estimated scf accuracy    <       0.00081995 Ry

     iteration #  2     ecut=    55.00 Ry     beta= 0.30
     Davidson diagonalization with overlap
     ethr =  6.07E-07,  avg # of iterations = 11.8

     negative rho (up, down):  1.807E-05 0.000E+00

     total cpu time spent up to now is       37.7 secs

     total energy              =   -1026.38129721 Ry
     estimated scf accuracy    <       0.25560186 Ry

     iteration #  3     ecut=    55.00 Ry     beta= 0.30
     Davidson diagonalization with overlap
     ethr =  6.07E-07,  avg # of iterations = 10.6

     negative rho (up, down):  2.014E-05 0.000E+00

     total cpu time spent up to now is       39.7 secs

     total energy              =   -1026.38523482 Ry
     estimated scf accuracy    <       0.00061921 Ry

     iteration #  4     ecut=    55.00 Ry     beta= 0.30
     Davidson diagonalization with overlap
     ethr =  4.59E-07,  avg # of iterations =  1.0

     negative rho (up, down):  2.024E-05 0.000E+00

     total cpu time spent up to now is       40.5 secs

     total energy              =   -1026.38525758 Ry
     estimated scf accuracy    <       0.00000975 Ry

     iteration #  5     ecut=    55.00 Ry     beta= 0.30
     Davidson diagonalization with overlap
     ethr =  7.22E-09,  avg # of iterations =  2.7

     negative rho (up, down):  1.827E-05 0.000E+00

     total cpu time spent up to now is       41.6 secs

     total energy              =   -1026.38525821 Ry
     estimated scf accuracy    <       0.00000142 Ry

     iteration #  6     ecut=    55.00 Ry     beta= 0.30
     Davidson diagonalization with overlap
     ethr =  1.05E-09,  avg # of iterations =  3.6

     negative rho (up, down):  1.670E-05 0.000E+00

     total cpu time spent up to now is       44.5 secs

     End of self-consistent calculation

          k = 0.0000 0.0000 0.0000 ( 21445 PWs)   bands (ev):

   -43.7820  -3.5455  -3.1039  -2.4845  -2.2089  -2.1797  -2.0584  -2.0422
    -1.9700  -1.8967  -1.8417  -1.8245  -1.7961  -1.6338  -1.5820  -1.1831
    -0.9121  -0.8943  -0.7797  -0.7234  -0.6932  -0.6900  -0.6703  -0.5954
    -0.5533  -0.5240  -0.5030  -0.4643  -0.4220  -0.4002  -0.3908  -0.3881
    -0.3753  -0.3516  -0.3067  -0.2894  -0.2454  -0.2375  -0.2368  -0.2021
    -0.1412  -0.1341  -0.0822  -0.0450  -0.0157   0.0036   0.0373   0.0998
     0.1888   0.2408   0.2979   0.4260   0.5164   0.5882   0.7219   0.7909
     0.8256   0.9484   0.9827   1.0036   1.0667   1.0823   1.1149   1.1301
     1.2198   1.4006   2.5060   3.6283   4.0046   4.3511   4.8723   5.9999
     6.4384   7.0039   7.1227   7.4745   7.5942   7.7279   7.8936   8.2046
     8.2549   8.4707

          k = 0.0000 0.0777 0.0000 ( 21497 PWs)   bands (ev):

   -43.7821  -3.4239  -2.9906  -2.4050  -2.1798  -2.1491  -2.1255  -2.0626
    -1.9975  -1.9323  -1.8908  -1.7918  -1.6356  -1.5401  -1.3858  -1.1036
    -0.9203  -0.9017  -0.8170  -0.7799  -0.7393  -0.7223  -0.7102  -0.6499
    -0.6448  -0.6361  -0.5999  -0.5530  -0.5218  -0.5091  -0.4850  -0.4773
    -0.4269  -0.3674  -0.3666  -0.3303  -0.2289  -0.1937  -0.1456  -0.1336
    -0.0871  -0.0679  -0.0390   0.0655   0.0736   0.1378   0.1817   0.2093
     0.2802   0.3060   0.4241   0.4999   0.5222   0.6461   0.7081   0.7691
     0.8098   0.9328   0.9391   0.9833   1.0329   1.0520   1.0871   1.1024
     1.1837   1.4320   2.5614   3.2399   3.6916   3.9847   4.4399   4.9765
     5.9597   6.4226   6.8282   7.1037   7.4821   7.8575   8.4462   8.5312
     8.7272   8.9176

          k = 0.0000 0.1554 0.0000 ( 21465 PWs)   bands (ev):

   -43.7821  -3.0759  -2.6700  -2.2577  -2.2147  -2.1082  -2.0885  -2.0298
    -1.9530  -1.8381  -1.8208  -1.6907  -1.5571  -1.3299  -1.2519  -1.1901
    -1.1829  -1.0250  -0.9679  -0.8893  -0.8205  -0.8089  -0.7735  -0.7459
    -0.7132  -0.7011  -0.6093  -0.5769  -0.5624  -0.5504  -0.4931  -0.4885
    -0.4572  -0.4279  -0.3413  -0.3199  -0.1950  -0.1948  -0.0997  -0.0465
     0.0051   0.1123   0.1593   0.1837   0.1989   0.2221   0.3112   0.3304
     0.4203   0.4595   0.5259   0.5488   0.6488   0.6718   0.7181   0.7892
     0.8110   0.8837   0.9122   0.9493   0.9498   0.9679   1.0438   1.0732
     1.1141   1.5811   1.9249   2.6442   2.8013   3.5161   3.9260   4.4471
     4.6511   5.4180   6.0379   6.7063   7.2275   7.9038   8.1851   8.7406
     9.1883   9.5244

          k = 0.0000 0.2331 0.0000 ( 21389 PWs)   bands (ev):

   -43.7820  -2.5784  -2.2647  -2.2106  -2.1091  -2.0349  -1.9952  -1.9274
    -1.8485  -1.7384  -1.7149  -1.5624  -1.5206  -1.4465  -1.4272  -1.3346
    -1.2463  -1.2043  -1.0412  -1.0185  -0.9346  -0.9016  -0.8228  -0.7577
    -0.7455  -0.7164  -0.6672  -0.6556  -0.6011  -0.5049  -0.4155  -0.4125
    -0.2994  -0.2778  -0.2683  -0.2449  -0.2047  -0.1649  -0.0387  -0.0176
     0.0670   0.1818   0.2007   0.3402   0.3431   0.3729   0.3967   0.4271
     0.4639   0.4835   0.5070   0.5485   0.5994   0.7594   0.7637   0.7749
     0.7866   0.8116   0.8337   0.8886   0.9246   0.9653   1.0579   1.0598
     1.0784   1.1586   1.5614   2.0890   2.2923   3.0933   3.2961   4.0826
     4.3074   4.7967   5.1442   6.1824   7.1136   7.9776   8.6054   8.7564
     9.3060   9.5180

          k = 0.0000-0.3108 0.0000 ( 21400 PWs)   bands (ev):

   -43.7820  -2.1820  -2.1353  -2.1323  -2.1259  -1.9766  -1.9732  -1.8511
    -1.8051  -1.7442  -1.6980  -1.5375  -1.4722  -1.4665  -1.4030  -1.3575
    -1.3424  -1.2056  -1.1759  -1.0837  -1.0698  -0.9537  -0.8948  -0.7559
    -0.7265  -0.6962  -0.6489  -0.5175  -0.5044  -0.4987  -0.4611  -0.4462
    -0.4079  -0.2663  -0.2309  -0.1891  -0.1123  -0.0361  -0.0120   0.0345
     0.0457   0.0581   0.0921   0.1820   0.2300   0.3621   0.5167   0.5272
     0.5946   0.6084   0.6107   0.6187   0.6236   0.6341   0.6546   0.7310
     0.7454   0.7917   0.8308   0.9165   0.9202   0.9247   0.9426   1.0602
     1.0658   1.3315   1.3890   1.9677   2.0306   2.9049   3.0198   3.9482
     4.0904   4.6382   4.9982   5.9224   6.9370   8.2832   8.6966   9.0366
     9.2020   9.3362

          k = 0.1250-0.0000 0.0000 ( 21499 PWs)   bands (ev):

   -43.7808  -3.2415  -2.8178  -2.2182  -2.0489  -1.9791  -1.8599  -1.8293
    -1.8154  -1.7956  -1.7183  -1.6551  -1.6165  -1.5907  -1.4379  -1.2415
    -1.1048  -1.0238  -0.9244  -0.8406  -0.8112  -0.7588  -0.7456  -0.6559
    -0.5542  -0.5303  -0.5007  -0.4996  -0.4820  -0.4640  -0.4125  -0.3691
    -0.3465  -0.3373  -0.3198  -0.3035  -0.2845  -0.2439  -0.2329  -0.2242
    -0.2015  -0.1540  -0.1411  -0.1048  -0.0599   0.0207   0.0396   0.0730
     0.1110   0.2024   0.3362   0.4264   0.4714   0.5769   0.7147   0.7222
     0.7813   0.9815   0.9868   0.9985   1.0088   1.0332   1.0529   1.0599
     1.1427   1.8710   2.9478   3.9930   4.7101   4.8429   5.5145   6.5066
     6.7257   7.2750   7.3965   7.8014   7.8576   7.8680   8.0184   8.3866
     8.5323   8.7468

          k = 0.1250 0.0777 0.0000 ( 21491 PWs)   bands (ev):

   -43.7808  -3.1260  -2.7138  -2.1505  -2.0148  -1.9957  -1.9355  -1.8723
    -1.8006  -1.7816  -1.7348  -1.5972  -1.4683  -1.4408  -1.3507  -1.1960
    -1.1145  -1.0466  -0.9647  -0.9178  -0.8834  -0.8067  -0.7662  -0.6785
    -0.6274  -0.6041  -0.5799  -0.5748  -0.5581  -0.4975  -0.4819  -0.4354
    -0.3876  -0.3738  -0.3494  -0.2857  -0.2298  -0.1841  -0.1656  -0.1502
    -0.1212  -0.0849  -0.0603  -0.0417  -0.0042   0.0554   0.1120   0.1430
     0.2051   0.2407   0.4039   0.4370   0.4788   0.5572   0.6941   0.7448
     0.7891   0.8677   0.9465   0.9559   0.9898   0.9969   1.0190   1.0847
     1.1422   1.9421   3.0280   3.9523   4.0793   4.5308   4.8665   5.4000
     6.3111   6.7313   7.1715   7.3792   7.8204   8.1392   8.7377   8.7849
     8.9061   9.1081

          k = 0.1250 0.1554 0.0000 ( 21468 PWs)   bands (ev):

   -43.7807  -2.7963  -2.4220  -2.1054  -2.0056  -1.9264  -1.9056  -1.8227
    -1.7528  -1.6778  -1.6497  -1.4899  -1.3957  -1.3091  -1.2879  -1.1787
    -1.1283  -1.0663  -1.0349  -0.9467  -0.9400  -0.8388  -0.8117  -0.7691
    -0.7619  -0.7292  -0.7151  -0.6924  -0.6400  -0.5859  -0.5256  -0.4791
    -0.4600  -0.3817  -0.3740  -0.3296  -0.2723  -0.1775  -0.1274  -0.1051
    -0.0730   0.0292   0.1205   0.1555   0.2029   0.2288   0.2496   0.3425
     0.3621   0.3893   0.4415   0.4783   0.5005   0.5802   0.6302   0.6682
     0.6912   0.7629   0.8218   0.8461   0.9333   0.9489   1.0290   1.0989
     1.2647   2.1546   2.6488   3.1593   3.2931   3.9103   4.3386   4.7955
     5.1292   5.7806   6.4570   7.0462   7.5006   8.1790   8.4519   9.0151
     9.3979   9.7598

          k = 0.1250 0.2331 0.0000 ( 21413 PWs)   bands (ev):

   -43.7807  -2.3239  -2.0983  -2.0143  -1.9500  -1.8225  -1.7970  -1.7535
    -1.6904  -1.5761  -1.5349  -1.5088  -1.4396  -1.3332  -1.2808  -1.2021
    -1.1706  -1.0689  -1.0502  -0.9845  -0.9558  -0.9335  -0.8876  -0.8395
    -0.8216  -0.7718  -0.7098  -0.6829  -0.6132  -0.5630  -0.5346  -0.5095
    -0.4805  -0.4604  -0.3882  -0.3252  -0.2918  -0.2367  -0.1801  -0.1447
    -0.0402   0.0782   0.1553   0.1826   0.2552   0.2739   0.3142   0.3578
     0.4237   0.4635   0.4969   0.5681   0.5942   0.6575   0.6831   0.7045
     0.7594   0.8036   0.8290   0.8746   0.9216   0.9963   1.0568   1.1265
     1.5326   1.6449   1.9958   2.5899   2.6646   3.4593   3.7805   4.4760
     4.7469   5.3353   5.5412   6.5902   7.4067   8.2436   8.8698   8.9603
     9.5576   9.7405

          k = 0.1250-0.3108 0.0000 ( 21356 PWs)   bands (ev):

   -43.7806  -1.9698  -1.9665  -1.9366  -1.8893  -1.8412  -1.8292  -1.6804
    -1.6544  -1.6131  -1.5792  -1.3646  -1.3456  -1.3235  -1.2639  -1.2316
    -1.2209  -1.1252  -1.0966  -1.0766  -1.0225  -1.0121  -0.9573  -0.9099
    -0.7546  -0.7350  -0.6988  -0.6356  -0.6283  -0.5519  -0.5479  -0.5124
    -0.4213  -0.3749  -0.3572  -0.3058  -0.2206  -0.1973  -0.1617  -0.1516
    -0.1242  -0.1027   0.0078   0.0276   0.1147   0.1977   0.2890   0.4121
     0.4302   0.5182   0.6030   0.6198   0.6233   0.7286   0.7451   0.8448
     0.8769   0.9209   0.9483   0.9882   1.0156   1.0472   1.0539   1.1653
     1.1998   1.6023   1.6544   2.3224   2.3907   3.3516   3.4590   4.4200
     4.5453   5.1467   5.4113   6.3757   7.2518   8.5003   8.9449   9.2665
     9.4346   9.5958

          k = 0.1250-0.2331 0.0000 ( 21413 PWs)   bands (ev):

   -43.7807  -2.3239  -2.0983  -2.0143  -1.9500  -1.8225  -1.7970  -1.7535
    -1.6904  -1.5761  -1.5349  -1.5088  -1.4396  -1.3332  -1.2808  -1.2021
    -1.1706  -1.0689  -1.0502  -0.9845  -0.9558  -0.9335  -0.8876  -0.8395
    -0.8216  -0.7718  -0.7098  -0.6829  -0.6132  -0.5630  -0.5346  -0.5095
    -0.4805  -0.4604  -0.3882  -0.3252  -0.2918  -0.2367  -0.1801  -0.1447
    -0.0402   0.0782   0.1553   0.1826   0.2552   0.2739   0.3142   0.3578
     0.4237   0.4635   0.4969   0.5681   0.5942   0.6575   0.6831   0.7045
     0.7594   0.8036   0.8290   0.8746   0.9216   0.9963   1.0568   1.1265
     1.5326   1.6449   1.9958   2.5899   2.6646   3.4593   3.7805   4.4760
     4.7469   5.3353   5.5412   6.5902   7.4067   8.2436   8.8698   8.9605
     9.5576   9.7405

          k = 0.1250-0.1554 0.0000 ( 21468 PWs)   bands (ev):

   -43.7807  -2.7963  -2.4220  -2.1054  -2.0056  -1.9264  -1.9056  -1.8227
    -1.7528  -1.6778  -1.6497  -1.4899  -1.3957  -1.3091  -1.2879  -1.1787
    -1.1283  -1.0663  -1.0349  -0.9467  -0.9400  -0.8388  -0.8117  -0.7691
    -0.7619  -0.7292  -0.7151  -0.6924  -0.6400  -0.5859  -0.5256  -0.4791
    -0.4600  -0.3817  -0.3740  -0.3296  -0.2723  -0.1775  -0.1274  -0.1051
    -0.0730   0.0292   0.1205   0.1555   0.2029   0.2288   0.2496   0.3425
     0.3621   0.3893   0.4415   0.4783   0.5005   0.5802   0.6302   0.6682
     0.6912   0.7629   0.8218   0.8461   0.9333   0.9489   1.0290   1.0989
     1.2647   2.1546   2.6488   3.1593   3.2931   3.9103   4.3386   4.7955
     5.1292   5.7806   6.4570   7.0462   7.5006   8.1790   8.4519   9.0151
     9.3979   9.7598

          k = 0.1250-0.0777 0.0000 ( 21491 PWs)   bands (ev):

   -43.7808  -3.1260  -2.7138  -2.1505  -2.0148  -1.9957  -1.9355  -1.8723
    -1.8006  -1.7816  -1.7348  -1.5972  -1.4683  -1.4408  -1.3507  -1.1960
    -1.1145  -1.0466  -0.9647  -0.9178  -0.8834  -0.8067  -0.7662  -0.6785
    -0.6274  -0.6041  -0.5799  -0.5747  -0.5581  -0.4975  -0.4819  -0.4354
    -0.3876  -0.3738  -0.3494  -0.2857  -0.2298  -0.1841  -0.1656  -0.1502
    -0.1212  -0.0849  -0.0603  -0.0417  -0.0042   0.0554   0.1120   0.1430
     0.2051   0.2407   0.4039   0.4370   0.4788   0.5572   0.6941   0.7448
     0.7891   0.8677   0.9465   0.9559   0.9898   0.9969   1.0190   1.0847
     1.1422   1.9421   3.0280   3.9523   4.0793   4.5308   4.8665   5.4000
     6.3111   6.7313   7.1715   7.3792   7.8204   8.1392   8.7377   8.7849
     8.9061   9.1081

          k = 0.2500-0.0000 0.0000 ( 21417 PWs)   bands (ev):

   -43.7773  -2.4664  -2.1849  -1.8296  -1.8243  -1.7995  -1.7892  -1.6899
    -1.6767  -1.5861  -1.5236  -1.4941  -1.4716  -1.4346  -1.2372  -1.1908
    -1.1594  -1.0384  -0.9895  -0.9756  -0.9227  -0.8375  -0.8321  -0.8113
    -0.7866  -0.7297  -0.7244  -0.6160  -0.5677  -0.5577  -0.5106  -0.4833
    -0.4368  -0.4284  -0.3712  -0.3327  -0.2738  -0.2340  -0.1522  -0.1194
    -0.0954  -0.0524  -0.0394   0.0765   0.1741   0.2296   0.2554   0.2864
     0.3163   0.3468   0.3641   0.4760   0.4931   0.6319   0.7091   0.7329
     0.8900   0.9709   0.9728   0.9986   1.0061   1.0427   1.0506   1.1093
     1.6866   2.7704   3.8967   4.8643   5.8606   6.5150   7.0269   7.4499
     7.7701   7.9908   8.1195   8.1576   8.4088   8.6448   8.8407   8.9493
     9.2222   9.2457

          k = 0.2500 0.0777 0.0000 ( 21426 PWs)   bands (ev):

   -43.7773  -2.3927  -2.1515  -1.8542  -1.8112  -1.7793  -1.7449  -1.6815
    -1.6383  -1.6070  -1.5457  -1.4400  -1.4037  -1.3355  -1.2335  -1.2042
    -1.1616  -1.0921  -1.0638  -1.0327  -0.9920  -0.9449  -0.8268  -0.7705
    -0.7303  -0.6872  -0.6526  -0.6162  -0.5747  -0.5336  -0.4973  -0.4775
    -0.4695  -0.3871  -0.3539  -0.3258  -0.2805  -0.2005  -0.1408  -0.1074
    -0.0994  -0.0143   0.0481   0.1423   0.2140   0.2264   0.2443   0.2760
     0.2999   0.3489   0.3827   0.4997   0.5192   0.6376   0.7378   0.7568
     0.8469   0.8639   0.8928   0.9590   1.0036   1.0322   1.0443   1.0669
     1.7455   2.8511   3.9905   4.9508   5.3524   5.7290   6.0197   6.4074
     7.1837   7.5446   7.9857   8.2138   8.6961   8.9015   9.2794   9.4509
     9.5527   9.6389

          k = 0.2500 0.1554 0.0000 ( 21427 PWs)   bands (ev):

   -43.7773  -2.1953  -2.0587  -1.8819  -1.7966  -1.6976  -1.6562  -1.6460
    -1.6135  -1.5372  -1.4927  -1.3958  -1.3395  -1.3201  -1.2652  -1.2070
    -1.2019  -1.1331  -1.0672  -1.0410  -0.9421  -0.9220  -0.8638  -0.8270
    -0.7560  -0.7274  -0.6956  -0.6607  -0.5799  -0.5352  -0.4875  -0.4163
    -0.4142  -0.3663  -0.3139  -0.2883  -0.2480  -0.1663  -0.1025  -0.0911
    -0.0791   0.0432   0.0703   0.1670   0.2333   0.2719   0.3216   0.3741
     0.4163   0.4384   0.4885   0.5340   0.5515   0.5919   0.6442   0.6649
     0.7304   0.8231   0.8493   0.8766   0.9356   1.0779   1.0828   1.1079
     1.9298   3.0950   3.8602   4.2177   4.2809   4.8385   5.2550   5.6555
     6.3760   6.6546   7.5257   7.8671   8.3178   8.9588   9.2188   9.7193
     9.9037  10.0208

          k = 0.2500 0.2331 0.0000 ( 21410 PWs)   bands (ev):

   -43.7773  -1.9488  -1.9153  -1.8319  -1.7631  -1.7077  -1.6771  -1.5947
    -1.5731  -1.5081  -1.4559  -1.4006  -1.3311  -1.2972  -1.2739  -1.2262
    -1.1625  -1.0876  -1.0233  -1.0065  -0.9712  -0.9254  -0.8868  -0.8256
    -0.7976  -0.7414  -0.6684  -0.6420  -0.5863  -0.5025  -0.4087  -0.3659
    -0.3586  -0.3205  -0.2962  -0.2721  -0.2329  -0.1961  -0.1454  -0.1278
    -0.0672  -0.0306   0.0130   0.0655   0.1408   0.2138   0.2344   0.2758
     0.3292   0.4351   0.5151   0.6272   0.6412   0.7283   0.7643   0.8411
     0.8667   0.9140   0.9426   0.9578   1.0354   1.1228   1.1358   1.4490
     2.3340   2.6031   2.8883   3.4670   3.5887   4.3427   4.7628   5.3546
     5.7361   6.4241   6.8296   7.6198   8.2533   9.0138   9.5329   9.6570
    10.2121  10.4381

          k = 0.2500-0.3108 0.0000 ( 21358 PWs)   bands (ev):

   -43.7772  -1.7808  -1.7747  -1.7588  -1.7519  -1.6969  -1.6934  -1.6789
    -1.6629  -1.5987  -1.5392  -1.3110  -1.2289  -1.2101  -1.1878  -1.1758
    -1.1211  -1.1176  -1.0937  -1.0663  -1.0641  -0.9538  -0.9425  -0.8689
    -0.7112  -0.6439  -0.5916  -0.5373  -0.5292  -0.4776  -0.4519  -0.3877
    -0.3424  -0.3153  -0.3021  -0.2251  -0.1927  -0.1725  -0.1494  -0.1339
    -0.1086  -0.0652  -0.0249  -0.0059   0.0207   0.0334   0.0726   0.1864
     0.2427   0.4727   0.5919   0.6281   0.6560   0.7532   0.7603   0.9421
     0.9485   1.0505   1.0533   1.0636   1.0726   1.5496   1.5881   1.7753
     1.8218   2.2848   2.3488   3.1569   3.2458   4.2964   4.4401   5.2941
     5.6371   6.1886   6.6552   7.5784   8.1867   9.0585   9.6609   9.9625
    10.1657  10.3389

          k = 0.2500-0.2331 0.0000 ( 21410 PWs)   bands (ev):

   -43.7773  -1.9488  -1.9153  -1.8319  -1.7631  -1.7077  -1.6771  -1.5947
    -1.5731  -1.5081  -1.4559  -1.4006  -1.3311  -1.2972  -1.2739  -1.2262
    -1.1625  -1.0876  -1.0233  -1.0065  -0.9712  -0.9254  -0.8868  -0.8256
    -0.7976  -0.7414  -0.6684  -0.6420  -0.5863  -0.5025  -0.4087  -0.3659
    -0.3586  -0.3205  -0.2962  -0.2721  -0.2329  -0.1961  -0.1454  -0.1278
    -0.0672  -0.0306   0.0130   0.0655   0.1408   0.2138   0.2344   0.2758
     0.3292   0.4351   0.5151   0.6272   0.6412   0.7283   0.7643   0.8411
     0.8667   0.9140   0.9426   0.9578   1.0354   1.1228   1.1358   1.4490
     2.3340   2.6031   2.8883   3.4670   3.5887   4.3427   4.7628   5.3546
     5.7361   6.4241   6.8296   7.6198   8.2533   9.0138   9.5329   9.6570
    10.2121  10.4381

          k = 0.2500-0.1554 0.0000 ( 21427 PWs)   bands (ev):

   -43.7773  -2.1953  -2.0587  -1.8818  -1.7966  -1.6976  -1.6562  -1.6460
    -1.6135  -1.5372  -1.4927  -1.3958  -1.3395  -1.3201  -1.2652  -1.2070
    -1.2019  -1.1331  -1.0672  -1.0410  -0.9421  -0.9220  -0.8638  -0.8270
    -0.7560  -0.7274  -0.6956  -0.6607  -0.5799  -0.5352  -0.4875  -0.4163
    -0.4142  -0.3663  -0.3139  -0.2883  -0.2480  -0.1663  -0.1025  -0.0911
    -0.0791   0.0432   0.0703   0.1670   0.2333   0.2719   0.3216   0.3741
     0.4163   0.4384   0.4885   0.5340   0.5515   0.5919   0.6442   0.6649
     0.7304   0.8231   0.8493   0.8766   0.9356   1.0779   1.0828   1.1079
     1.9298   3.0950   3.8602   4.2177   4.2809   4.8385   5.2550   5.6555
     6.3760   6.6546   7.5257   7.8671   8.3178   8.9588   9.2188   9.7193
     9.9037  10.0208

          k = 0.2500-0.0777 0.0000 ( 21426 PWs)   bands (ev):

   -43.7773  -2.3927  -2.1515  -1.8542  -1.8112  -1.7793  -1.7449  -1.6815
    -1.6383  -1.6070  -1.5457  -1.4400  -1.4037  -1.3355  -1.2335  -1.2042
    -1.1616  -1.0921  -1.0638  -1.0327  -0.9920  -0.9449  -0.8268  -0.7705
    -0.7303  -0.6872  -0.6526  -0.6162  -0.5747  -0.5336  -0.4973  -0.4775
    -0.4695  -0.3871  -0.3539  -0.3258  -0.2805  -0.2005  -0.1408  -0.1074
    -0.0994  -0.0143   0.0481   0.1423   0.2140   0.2264   0.2443   0.2760
     0.2999   0.3489   0.3827   0.4997   0.5191   0.6376   0.7378   0.7568
     0.8469   0.8639   0.8928   0.9590   1.0036   1.0322   1.0443   1.0669
     1.7455   2.8511   3.9905   4.9508   5.3524   5.7290   6.0197   6.4074
     7.1837   7.5446   7.9857   8.2138   8.6961   8.9015   9.2794   9.4509
     9.5527   9.6389

          k = 0.3750-0.0000 0.0000 ( 21365 PWs)   bands (ev):

   -43.7739  -2.0468  -2.0394  -1.8677  -1.8429  -1.8225  -1.8051  -1.7935
    -1.7862  -1.7352  -1.6983  -1.6147  -1.5749  -1.4775  -1.4694  -1.4223
    -1.2973  -1.1406  -1.0612  -0.9573  -0.8052  -0.8003  -0.7837  -0.7364
    -0.7144  -0.7106  -0.6685  -0.5765  -0.5544  -0.4553  -0.4139  -0.3886
    -0.3654  -0.3406  -0.2977  -0.2591  -0.2248  -0.2104  -0.1269  -0.0453
     0.0003   0.1818   0.2577   0.3068   0.4508   0.5653   0.6351   0.6736
     0.7260   0.7627   0.7853   0.8682   0.8755   0.8874   0.9682   0.9878
     0.9909   1.0205   1.0686   1.0865   1.1313   1.4305   1.5363   1.9895
     2.8848   4.0294   5.1106   6.0498   6.2002   6.5712   7.1304   7.4862
     7.7873   8.4223   8.5931   8.7074   8.8367   8.9113   9.0016   9.4351
     9.4886   9.8133

          k = 0.3750 0.0777 0.0000 ( 21373 PWs)   bands (ev):

   -43.7739  -2.0526  -2.0491  -1.9638  -1.9588  -1.8793  -1.8648  -1.7729
    -1.7653  -1.6923  -1.6116  -1.4904  -1.4395  -1.4366  -1.3958  -1.3324
    -1.2586  -1.1094  -1.0498  -0.9841  -0.9266  -0.8945  -0.8746  -0.8232
    -0.7998  -0.7224  -0.7034  -0.6563  -0.6456  -0.5153  -0.4739  -0.4388
    -0.3714  -0.3094  -0.2637  -0.1814  -0.1206  -0.0507   0.0275   0.0854
     0.1332   0.2594   0.3284   0.3985   0.5051   0.6054   0.6410   0.7067
     0.7524   0.7711   0.7911   0.8404   0.8501   0.8689   0.9061   0.9214
     0.9600   1.0155   1.0238   1.0280   1.0609   1.4846   1.5460   1.9937
     2.9274   4.1012   5.1992   6.1498   6.2787   6.6111   6.9469   7.0568
     7.1706   7.4683   7.5868   7.7957   8.7171   9.0869   9.3701   9.6056
     9.7859   9.9174

          k = 0.3750 0.1554 0.0000 ( 21345 PWs)   bands (ev):

   -43.7739  -2.1426  -2.1352  -1.9727  -1.9601  -1.8579  -1.8564  -1.7304
    -1.7080  -1.5905  -1.5665  -1.4821  -1.3538  -1.3471  -1.3036  -1.2697
    -1.2559  -1.1929  -1.1806  -1.1784  -1.0960  -1.0065  -0.9544  -0.8867
    -0.8480  -0.7737  -0.6866  -0.6113  -0.5488  -0.5227  -0.4248  -0.3918
    -0.2971  -0.1674  -0.1207  -0.0986   0.0035   0.0301   0.0756   0.2198
     0.3140   0.3773   0.4780   0.5320   0.5671   0.6210   0.6316   0.6581
     0.6746   0.6978   0.7399   0.7910   0.8143   0.8412   0.8743   0.9033
     0.9248   0.9606   1.0074   1.0805   1.1046   1.6061   1.6497   2.1063
     3.1061   4.3219   5.3407   5.4366   5.5997   5.9956   6.3773   6.4665
     6.4908   6.8388   7.2500   8.0368   8.7220   8.9506   9.1825   9.4585
     9.7908   9.9188

          k = 0.3750 0.2331 0.0000 ( 21344 PWs)   bands (ev):

   -43.7739  -2.1304  -2.1257  -1.9440  -1.9370  -1.8202  -1.8155  -1.7218
    -1.6588  -1.5997  -1.5864  -1.5137  -1.4849  -1.4416  -1.4339  -1.3998
    -1.3420  -1.2139  -1.2086  -1.1332  -1.0757  -1.0483  -0.9632  -0.8796
    -0.8080  -0.6765  -0.6133  -0.4870  -0.4277  -0.3963  -0.3117  -0.2888
    -0.2252  -0.1369  -0.0344  -0.0010   0.0875   0.1365   0.2280   0.2527
     0.2744   0.3005   0.3192   0.3416   0.4076   0.4473   0.5039   0.6276
     0.7276   0.7605   0.8159   0.8266   0.8852   0.9043   0.9068   0.9371
     0.9664   0.9901   1.0296   1.1014   1.1270   1.9881   2.0908   2.5830
     3.5157   3.9554   4.1662   4.6281   4.7600   5.4030   5.8572   6.1762
     6.7916   6.8767   7.2988   8.4452   8.7311   8.9252   9.1253   9.3512
     9.5708   9.7655

          k = 0.3750-0.3108 0.0000 ( 21340 PWs)   bands (ev):

   -43.7739  -2.0066  -2.0012  -1.9963  -1.9941  -1.8245  -1.8185  -1.8120
    -1.7968  -1.6645  -1.6071  -1.4976  -1.4799  -1.3922  -1.3861  -1.3639
    -1.3553  -1.2380  -1.2144  -1.2019  -1.1418  -1.0291  -0.9397  -0.9294
    -0.8284  -0.5486  -0.5325  -0.4115  -0.3770  -0.2392  -0.2309  -0.1645
    -0.1245  -0.0636  -0.0354  -0.0132   0.0068   0.0137   0.0647   0.0905
     0.1323   0.2902   0.3125   0.3281   0.3479   0.5678   0.5962   0.6841
     0.7390   0.7398   0.7517   0.8220   0.8931   0.9578   0.9684   0.9907
     0.9955   1.0148   1.0167   1.0458   1.0561   2.7623   2.7997   2.9353
     2.9946   3.4228   3.5123   4.2744   4.4117   5.3115   5.5849   6.1542
     6.7532   7.0547   7.4872   8.5880   8.6665   8.9142   9.0970   9.3367
     9.4491   9.5303

          k = 0.3750-0.2331 0.0000 ( 21344 PWs)   bands (ev):

   -43.7739  -2.1304  -2.1257  -1.9440  -1.9370  -1.8202  -1.8155  -1.7218
    -1.6588  -1.5997  -1.5864  -1.5137  -1.4849  -1.4416  -1.4339  -1.3998
    -1.3420  -1.2139  -1.2086  -1.1332  -1.0757  -1.0483  -0.9632  -0.8796
    -0.8080  -0.6765  -0.6133  -0.4870  -0.4277  -0.3963  -0.3117  -0.2888
    -0.2252  -0.1369  -0.0344  -0.0010   0.0875   0.1365   0.2280   0.2527
     0.2744   0.3005   0.3192   0.3416   0.4076   0.4473   0.5039   0.6276
     0.7276   0.7605   0.8159   0.8266   0.8852   0.9043   0.9068   0.9371
     0.9664   0.9901   1.0296   1.1014   1.1270   1.9881   2.0908   2.5830
     3.5157   3.9554   4.1662   4.6281   4.7600   5.4030   5.8572   6.1762
     6.7916   6.8767   7.2988   8.4452   8.7311   8.9252   9.1253   9.3512
     9.5708   9.7655

          k = 0.3750-0.1554 0.0000 ( 21345 PWs)   bands (ev):

   -43.7739  -2.1426  -2.1352  -1.9727  -1.9601  -1.8579  -1.8564  -1.7304
    -1.7080  -1.5905  -1.5665  -1.4821  -1.3538  -1.3471  -1.3036  -1.2697
    -1.2559  -1.1929  -1.1806  -1.1784  -1.0960  -1.0065  -0.9544  -0.8867
    -0.8480  -0.7737  -0.6866  -0.6113  -0.5488  -0.5227  -0.4248  -0.3918
    -0.2971  -0.1674  -0.1207  -0.0986   0.0035   0.0301   0.0756   0.2198
     0.3140   0.3773   0.4780   0.5320   0.5671   0.6210   0.6316   0.6581
[...]
     0.2578   0.2842   0.2976   0.3253   0.3668   0.4247   0.5187   0.6087
     0.7023   0.7668   0.7941   0.8214   0.8698   0.9022   0.9156   0.9373
     0.9674   0.9809   1.0440   1.1378   1.1657   1.9782   2.0577   2.5416
     3.5017   3.9307   4.1180   4.6066   4.7610   5.3756   6.0391   6.2493
     6.8181   7.0217   7.4234   8.6389   8.8407   9.1538   9.2597   9.5415
     9.7268   9.8617

          k = 0.3750-0.1554 0.0000 ( 21345 PWs)   bands (ev):

   -43.1527  -2.2052  -2.1992  -2.0132  -1.9988  -1.9367  -1.9281  -1.7579
    -1.7385  -1.6479  -1.6181  -1.5117  -1.3939  -1.3822  -1.3607  -1.3223
    -1.3114  -1.2582  -1.2488  -1.1955  -1.1464  -1.0480  -1.0191  -0.9460
    -0.8824  -0.8099  -0.6947  -0.6761  -0.5678  -0.5298  -0.4657  -0.4005
    -0.3290  -0.1923  -0.1581  -0.1322  -0.0325   0.0074   0.0702   0.1877
     0.2852   0.3185   0.4536   0.5235   0.5437   0.6082   0.6275   0.6637
     0.6808   0.6987   0.7173   0.7788   0.8036   0.8327   0.8757   0.8806
     0.9265   0.9595   1.0064   1.1147   1.1327   1.5982   1.6229   2.0606
     3.0855   4.3579   5.3118   5.5201   5.6801   5.9656   6.4110   6.4779
     6.7108   6.9077   7.1496   8.3530   8.8340   9.2162   9.3920   9.6742
     9.9734  10.1734

          k = 0.3750-0.0777 0.0000 ( 21373 PWs)   bands (ev):

   -43.1528  -2.1176  -2.1138  -2.0234  -2.0204  -1.9287  -1.9207  -1.8172
    -1.7851  -1.7296  -1.6627  -1.5289  -1.4931  -1.4882  -1.4455  -1.3774
    -1.3479  -1.1744  -1.1132  -1.0115  -0.9562  -0.9266  -0.8952  -0.8739
    -0.8336  -0.7347  -0.7115  -0.7013  -0.6369  -0.5363  -0.5033  -0.4638
    -0.4106  -0.3296  -0.3110  -0.2110  -0.1623  -0.0896   0.0310   0.0530
     0.0767   0.2083   0.3331   0.3730   0.4344   0.5685   0.6049   0.7063
     0.7456   0.7723   0.7889   0.8321   0.8421   0.8732   0.9011   0.9098
     0.9529   1.0228   1.0444   1.0503   1.0579   1.4823   1.5162   1.9533
     2.9081   4.1367   5.4249   6.1721   6.5868   6.7229   6.9029   7.0157
     7.1567   7.4256   7.5389   8.0313   9.0557   9.1867   9.5354   9.7380
     9.9494  10.1361

          k =-0.5000 0.0000 0.0000 ( 21294 PWs)   bands (ev):

   -43.1512  -2.2205  -2.2149  -1.9386  -1.9223  -1.9167  -1.9163  -1.8796
    -1.8784  -1.8309  -1.8295  -1.7598  -1.6830  -1.6579  -1.5546  -1.5211
    -1.5120  -1.3382  -1.1462  -1.0991  -0.8264  -0.8101  -0.7804  -0.7680
    -0.7387  -0.6782  -0.5903  -0.4744  -0.4584  -0.4406  -0.4342  -0.4169
    -0.3794  -0.2668  -0.2609  -0.2551  -0.2427  -0.1601  -0.0654   0.1072
     0.1373   0.2490   0.2857   0.4219   0.5006   0.5571   0.6066   0.7828
     0.8468   0.9438   0.9932   1.0145   1.0295   1.0306   1.0561   1.0590
     1.0629   1.1085   1.1108   1.1143   1.1278   3.3696   3.3727   3.5399
     3.5570   3.8389   3.9058   4.7563   5.7719   6.1930   6.5825   7.3770
     7.5721   8.5322   8.5873   9.8253   9.8494  10.0781  10.4742  10.5265
    10.6551  10.7066

          k =-0.5000 0.0777 0.0000 ( 21286 PWs)   bands (ev):

   -43.1512  -2.1883  -2.1822  -2.1488  -2.1466  -1.9669  -1.9589  -1.9003
    -1.8784  -1.7823  -1.6209  -1.5977  -1.5943  -1.5679  -1.5643  -1.4438
    -1.3906  -1.2446  -1.1249  -1.0360  -1.0023  -0.9998  -0.9152  -0.8382
    -0.8329  -0.7370  -0.7269  -0.6937  -0.6394  -0.5693  -0.3522  -0.3337
    -0.2868  -0.2314  -0.2120  -0.2008  -0.1856   0.0029   0.1226   0.1676
     0.2454   0.3308   0.4191   0.4990   0.5866   0.6544   0.7256   0.8021
     0.8369   0.8951   0.9118   0.9494   0.9545   1.0130   1.0137   1.0596
     1.0811   1.0891   1.0916   1.1107   1.1159   3.4458   3.4505   3.6072
     3.6073   3.8860   3.9270   4.7721   5.7560   6.1637   6.5618   7.3068
     7.4901   8.3073   8.3504   9.2690   9.3750   9.4555   9.5696   9.8649
     9.9969   9.9983

          k =-0.5000 0.1554 0.0000 ( 21260 PWs)   bands (ev):

   -43.1511  -2.2945  -2.2913  -2.1050  -2.0942  -2.0481  -2.0432  -1.8696
    -1.7853  -1.7410  -1.6809  -1.5811  -1.4550  -1.4146  -1.3711  -1.3521
    -1.3225  -1.3001  -1.2950  -1.2804  -1.1826  -1.1215  -1.0930  -0.9546
    -0.9049  -0.8000  -0.7551  -0.6930  -0.6401  -0.5972  -0.3102  -0.2398
    -0.1868  -0.0929  -0.0859  -0.0332   0.0239   0.1041   0.2522   0.2867
     0.3842   0.3968   0.5588   0.5795   0.5969   0.6892   0.6893   0.7419
     0.7622   0.7914   0.8363   0.8814   0.8978   1.0443   1.0533   1.0950
     1.1004   1.1297   1.1390   1.1558   1.1559   3.6885   3.6906   3.7942
     3.8065   4.0471   4.0778   4.8171   5.6727   6.0041   6.4088   6.8433
     7.0355   7.2350   7.2694   8.6939   8.8961   9.0816   9.0840   9.3175
     9.4451   9.5265

          k =-0.5000 0.2331 0.0000 ( 21256 PWs)   bands (ev):

   -43.1511  -2.2978  -2.2939  -2.0747  -2.0674  -2.0194  -2.0071  -1.8390
    -1.7869  -1.7491  -1.6381  -1.6281  -1.6087  -1.5847  -1.5648  -1.5244
    -1.4483  -1.3843  -1.3831  -1.2581  -1.1669  -1.0938  -1.0242  -0.9670
    -0.8447  -0.8004  -0.6296  -0.5447  -0.4266  -0.3257  -0.2728  -0.2293
    -0.1361  -0.0254   0.0064   0.0791   0.2192   0.2276   0.2460   0.3158
     0.3514   0.3749   0.3749   0.4081   0.4281   0.5949   0.6583   0.7375
     0.8432   0.8903   0.8963   0.9409   0.9743   1.0585   1.0658   1.1284
     1.1450   1.1653   1.1726   1.1792   1.2000   4.1435   4.1465   4.1874
     4.1947   4.3840   4.4528   4.8731   5.3839   5.5384   5.8033   5.8764
     6.0245   6.1913   6.6783   8.3590   8.6165   8.9372   8.9725   9.1159
     9.1279   9.4473

          k =-0.5000-0.3108 0.0000 ( 21304 PWs)   bands (ev):

   -43.1512  -2.1788  -2.1746  -2.1696  -2.1660  -1.9524  -1.9405  -1.9367
    -1.9271  -1.7718  -1.7320  -1.6674  -1.6506  -1.5426  -1.5330  -1.5225
    -1.5162  -1.3600  -1.3259  -1.3151  -1.2408  -1.1053  -1.0268  -1.0142
    -0.9841  -0.5396  -0.4313  -0.3327  -0.2546  -0.2151  -0.1837  -0.1486
    -0.1310  -0.0198  -0.0019   0.0120   0.0239   0.0439   0.0661   0.0706
     0.1924   0.4225   0.4284   0.4767   0.4915   0.7972   0.8566   0.8804
     0.8862   0.9130   0.9594   0.9808   1.0334   1.0368   1.0442   1.0746
     1.0778   1.0918   1.0970   1.1607   1.1937   4.7247   4.7292   4.7697
     4.7872   4.8173   4.8326   4.8501   4.8721   4.8896   4.9010   4.9887
     5.4185   5.7315   6.5525   8.2467   8.5571   8.8428   8.9412   9.0637
     9.0824   9.6086

     the Fermi energy is     4.0390 ev

!    total energy              =   -1026.41280373 Ry
     estimated scf accuracy    <          1.0E-09 Ry
     smearing contrib. (-TS)   =      -0.00179572 Ry
     internal energy E=F+TS    =   -1026.41100801 Ry

     The total energy is F=E-TS. E is the sum of the following terms:
     one-electron contribution =  -14734.13640150 Ry
     hartree contribution      =    7471.02996434 Ry
     xc contribution           =    -271.66945641 Ry
     ewald contribution        =    6508.74269212 Ry
     DFT-D3 Dispersion         =      -0.37780656 Ry

     convergence has been achieved in   8 iterations

     negative rho (up, down):  2.294E-05 0.000E+00

     Forces acting on atoms (cartesian axes, Ry/au):

     atom    1 type  2   force =     0.00000001    0.00041561    0.00048703
     atom    2 type  2   force =     0.00000010   -0.00004189    0.00051344
     atom    3 type  2   force =    -0.00000003    0.00062152   -0.00027726
     atom    4 type  2   force =    -0.00000001   -0.00033182    0.00002699
     atom    5 type  2   force =    -0.00000015    0.00064739    0.00043835
     atom    6 type  2   force =     0.00000005    0.00002824   -0.00001734
     atom    7 type  2   force =     0.00000013   -0.00027805    0.00015993
     atom    8 type  2   force =    -0.00000004    0.00004348   -0.00067953
     atom    9 type  2   force =    -0.00000011   -0.00061174   -0.00012023
     atom   10 type  2   force =     0.00000014   -0.00051816   -0.00003607
     atom   11 type  2   force =    -0.00000017   -0.00005917   -0.00006992
     atom   12 type  2   force =     0.00000009   -0.00009873    0.00008244
     atom   13 type  1   force =     0.00000000    0.00018331   -0.00050782
     The non-local contrib.  to forces
     atom    1 type  2   force =    -0.00000003    0.00074320    0.03375059
     atom    2 type  2   force =     0.00000015   -0.00006486   -0.00477888
     atom    3 type  2   force =     0.00000003    0.00031688    0.01905507
     atom    4 type  2   force =     0.00000005   -0.00050458    0.00347372
     atom    5 type  2   force =    -0.00000005    0.00057020   -0.00145786
     atom    6 type  2   force =     0.00000007   -0.00035125   -0.00122002
     atom    7 type  2   force =     0.00000016   -0.00015050   -0.00520033
     atom    8 type  2   force =    -0.00000007    0.00022129   -0.00773832
     atom    9 type  2   force =    -0.00000007   -0.00030065   -0.01019893
     atom   10 type  2   force =     0.00000007   -0.00019338   -0.03006766
     atom   11 type  2   force =    -0.00000009   -0.00017874   -0.01669485
     atom   12 type  2   force =     0.00000004    0.00033468   -0.10221093
     atom   13 type  1   force =    -0.00000002    0.00014621    0.07266463
     The ionic contribution  to forces
     atom    1 type  2   force =    -0.00000102    0.03127211  173.39236309
     atom    2 type  2   force =     0.00000197   -0.02650714  153.04387444
     atom    3 type  2   force =    -0.00000065    0.04817712  108.58281873
     atom    4 type  2   force =    -0.00000139   -0.04696590   86.05437665
     atom    5 type  2   force =    -0.00000601    0.04949496   40.87659242
     atom    6 type  2   force =     0.00000371   -0.02221085   18.43048307
     atom    7 type  2   force =     0.00000358   -0.00768681  -27.11091098
     atom    8 type  2   force =    -0.00000135    0.01025926  -49.25128545
     atom    9 type  2   force =    -0.00000294   -0.02406091  -95.18626914
     atom   10 type  2   force =     0.00000440   -0.01289957 -116.29452984
     atom   11 type  2   force =    -0.00000403   -0.00037091 -164.01047302
     atom   12 type  2   force =     0.00000406   -0.00135697 -179.62507409
     atom   13 type  1   force =    -0.00000032    0.00285560   51.09803410
     The local contribution  to forces
     atom    1 type  2   force =     0.00000109   -0.03149642 -173.41912041
     atom    2 type  2   force =    -0.00000200    0.02656419 -153.03482343
     atom    3 type  2   force =     0.00000057   -0.04773161 -108.59804724
     atom    4 type  2   force =     0.00000134    0.04705448  -86.05544719
     atom    5 type  2   force =     0.00000590   -0.04931161  -40.87444722
     atom    6 type  2   force =    -0.00000370    0.02259787  -18.42864276
     atom    7 type  2   force =    -0.00000354    0.00749623   27.11552283
     atom    8 type  2   force =     0.00000135   -0.01042218   49.25786555
     atom    9 type  2   force =     0.00000289    0.02360963   95.19284624
     atom   10 type  2   force =    -0.00000427    0.01247456  116.31991917
     atom   11 type  2   force =     0.00000394    0.00044760  164.01835338
     atom   12 type  2   force =    -0.00000397    0.00092721  179.71533428
     atom   13 type  1   force =     0.00000035   -0.00281994  -51.16853075
     The core correction contribution to forces
     atom    1 type  2   force =    -0.00000000   -0.00004000   -0.00229204
     atom    2 type  2   force =    -0.00000001   -0.00000326    0.00161297
     atom    3 type  2   force =     0.00000000   -0.00008151   -0.00058726
     atom    4 type  2   force =     0.00000000    0.00005362   -0.00049386
     atom    5 type  2   force =     0.00000002   -0.00009274    0.00007540
     atom    6 type  2   force =    -0.00000001    0.00001586   -0.00036149
     atom    7 type  2   force =    -0.00000001    0.00002825    0.00024867
     atom    8 type  2   force =     0.00000000   -0.00000968   -0.00013177
     atom    9 type  2   force =     0.00000001    0.00008276    0.00082770
     atom   10 type  2   force =    -0.00000002    0.00005907    0.00019120
     atom   11 type  2   force =     0.00000002    0.00001430    0.00372994
     atom   12 type  2   force =    -0.00000001    0.00000639    0.00700351
     atom   13 type  1   force =     0.00000000    0.00000000    0.00000000
     The Hubbard contrib.    to forces
     atom    1 type  2   force =     0.00000000    0.00000000    0.00000000
     atom    2 type  2   force =     0.00000000    0.00000000    0.00000000
     atom    3 type  2   force =     0.00000000    0.00000000    0.00000000
     atom    4 type  2   force =     0.00000000    0.00000000    0.00000000
     atom    5 type  2   force =     0.00000000    0.00000000    0.00000000
     atom    6 type  2   force =     0.00000000    0.00000000    0.00000000
     atom    7 type  2   force =     0.00000000    0.00000000    0.00000000
     atom    8 type  2   force =     0.00000000    0.00000000    0.00000000
     atom    9 type  2   force =     0.00000000    0.00000000    0.00000000
     atom   10 type  2   force =     0.00000000    0.00000000    0.00000000
     atom   11 type  2   force =     0.00000000    0.00000000    0.00000000
     atom   12 type  2   force =     0.00000000    0.00000000    0.00000000
     atom   13 type  1   force =     0.00000000    0.00000000    0.00000000
     The SCF correction term to forces
     atom    1 type  2   force =    -0.00000000   -0.00000171    0.00001431
     atom    2 type  2   force =     0.00000001   -0.00001128   -0.00001129
     atom    3 type  2   force =     0.00000001   -0.00003476   -0.00002670
     atom    4 type  2   force =    -0.00000000    0.00001653   -0.00001941
     atom    5 type  2   force =    -0.00000002    0.00001120    0.00001417
     atom    6 type  2   force =    -0.00000001   -0.00000797    0.00001850
     atom    7 type  2   force =    -0.00000002    0.00000599    0.00006349
     atom    8 type  2   force =     0.00000004    0.00001252    0.00004684
     atom    9 type  2   force =     0.00000001   -0.00000739   -0.00003186
     atom   10 type  2   force =    -0.00000000    0.00001897   -0.00002887
     atom   11 type  2   force =    -0.00000001    0.00000460   -0.00002075
     atom   12 type  2   force =    -0.00000000   -0.00000471   -0.00000300
     atom   13 type  1   force =     0.00000000    0.00000084    0.00000004

     DFT-D3 dispersion contribution to forces:
     atom    1 type  2   force =    -0.00000001   -0.00006047   -0.00422874
     atom    2 type  2   force =    -0.00000001   -0.00001843   -0.00536059
     atom    3 type  2   force =     0.00000001   -0.00002350   -0.00349009
     atom    4 type  2   force =     0.00000000    0.00001513   -0.00186313
     atom    5 type  2   force =     0.00000001   -0.00002351   -0.00033878
     atom    6 type  2   force =    -0.00000001   -0.00001431   -0.00029487
     atom    7 type  2   force =    -0.00000001    0.00002990    0.00043604
     atom    8 type  2   force =     0.00000000   -0.00001663    0.00056340
     atom    9 type  2   force =     0.00000001    0.00006594    0.00270552
     atom   10 type  2   force =    -0.00000002    0.00002328    0.00447969
     atom   11 type  2   force =     0.00000002    0.00002508    0.00503516
     atom   12 type  2   force =    -0.00000001   -0.00000421    0.00503245
     atom   13 type  1   force =     0.00000001    0.00000171   -0.00267607

     Total force =     0.001845     Total SCF correction =     0.000114


     Computing stress (Cartesian axis) and pressure


     negative rho (up, down):  2.294E-05 0.000E+00
          total   stress  (Ry/bohr**3)                   (kbar)     P=      -10.66
  -0.00008222   0.00000000  -0.00000000          -12.10        0.00       -0.00
   0.00000000  -0.00007357   0.00000752            0.00      -10.82        1.11
  -0.00000000   0.00000752  -0.00006157           -0.00        1.11       -9.06

     Energy error            =      1.2E-05 Ry
     Gradient error          =      6.8E-04 Ry/Bohr

     bfgs converged in  39 scf cycles and  38 bfgs steps
     (criteria: energy <  1.0E-04 Ry, force <  1.0E-03 Ry/Bohr)

     End of BFGS Geometry Optimization

     Final energy             =   -1026.4128037277 Ry

     File ./Ag_mp-10597_100_hollow_1/Ag_mp-10597_100_hollow_1.bfgs deleted, as requested
Begin final coordinates

ATOMIC_POSITIONS (angstrom)
Ag            0.7305768461        3.4064218120       23.4581170519
Ag            2.1917248715        1.0607096795       22.5694397351
Ag            2.1917276153        3.4218175453       20.9067511168
Ag            0.7305771160        1.0809951656       20.0700989367
Ag            0.7305779768        3.4469240634       18.4232131296
Ag            2.1917260799        1.1091489112       17.5999872171
Ag            2.1917239953        3.4845441262       15.9482108507
Ag            0.7305748850        1.1448813468       15.1348802137
Ag            0.7305748264        3.5177322653       13.4660928250
Ag            2.1917225914        1.1726523629       12.6651479381
Ag            2.1917258449        3.5273273183       10.9263898377
Ag            0.7305739861        1.1769436016       10.2030455543
Li            0.7305740595        1.0516879804       24.8015623509
End final coordinates



     Writing all to output data dir ./Ag_mp-10597_100_hollow_1/Ag_mp-10597_100_hollow_1.save/

     init_run     :      7.84s CPU      8.48s WALL (       1 calls)
     electrons    :    449.69s CPU    497.09s WALL (      39 calls)
     update_pot   :      9.70s CPU     10.36s WALL (      38 calls)
     forces       :     11.58s CPU     13.29s WALL (      39 calls)
     force_dftd3  :      0.44s CPU      0.76s WALL (      39 calls)
     stress       :     73.47s CPU     76.02s WALL (      39 calls)
     stres_dftd3  :      0.33s CPU      0.46s WALL (      39 calls)

     Called by init_run:
     wfcinit      :      0.69s CPU      1.01s WALL (       1 calls)
     potinit      :      1.54s CPU      1.59s WALL (       1 calls)
     hinit0       :      5.48s CPU      5.70s WALL (       1 calls)

     Called by electrons:
     c_bands      :    398.69s CPU    434.36s WALL (     374 calls)
     sum_band     :     43.13s CPU     48.14s WALL (     374 calls)
     v_of_rho     :      3.62s CPU      4.88s WALL (     387 calls)
     newd         :      2.55s CPU      2.94s WALL (     387 calls)
     mix_rho      :      0.50s CPU      0.52s WALL (     374 calls)
     energy_dftd3 :      0.11s CPU      0.11s WALL (      39 calls)

     Called by c_bands:
     init_us_2    :      1.61s CPU      1.74s WALL (    7443 calls)
     init_us_2:cp :      1.60s CPU      1.74s WALL (    7443 calls)
     cegterg      :    374.94s CPU    393.93s WALL (    3366 calls)

     Called by *egterg:
     cdiaghg      :    119.17s CPU    119.93s WALL (   14393 calls)
     h_psi        :    191.70s CPU    205.86s WALL (   14978 calls)
     s_psi        :     13.44s CPU     13.57s WALL (   14978 calls)
     g_psi        :      0.60s CPU      0.61s WALL (   11603 calls)

     Called by h_psi:
     h_psi:calbec :     20.35s CPU     23.87s WALL (   14978 calls)
     vloc_psi     :    157.04s CPU    167.43s WALL (   14978 calls)
     add_vuspsi   :     13.55s CPU     13.80s WALL (   14978 calls)

     General routines
     calbec       :     33.76s CPU     38.92s WALL (   20099 calls)
     fft          :      9.88s CPU     11.66s WALL (    5992 calls)
     ffts         :      1.63s CPU      2.01s WALL (     761 calls)
     fftw         :    169.77s CPU    181.08s WALL ( 1745502 calls)
     interpolate  :      1.69s CPU      1.90s WALL (     387 calls)

     Parallel routines

     PWSCF        :   9m13.90s CPU  10m 8.90s WALL


   This run was terminated on:  11:17:14  25Jul2025            

=------------------------------------------------------------------------------=
   JOB DONE.
=------------------------------------------------------------------------------=
[1753453034.727522] [rome28:862312:0]           flush.c:57   UCX  ERROR req 0x2ee4100: error during flush: Connection reset by remote peer
[1753453034.727551] [rome28:862312:0]           flush.c:57   UCX  ERROR req 0x2ee4100: error during flush: Connection reset by remote peer
