
     Program PWSCF v.7.2 starts on 25Jul2025 at 11:26:39 

     This program is part of the open-source Quantum ESPRESSO suite
     for quantum simulation of materials; please cite
         "P. Giannozzi et al., J. Phys.:Condens. Matter 21 395502 (2009);
         "P. Giannozzi et al., J. Phys.:Condens. Matter 29 465901 (2017);
         "P. Giannozzi et al., J. Chem. Phys. 152 154105 (2020);
          URL http://www.quantum-espresso.org", 
     in publications or presentations arising from this work. More details at
     http://www.quantum-espresso.org/quote

     Parallel version (MPI & OpenMP), running on     256 processor cores
     Number of MPI processes:               256
     Threads/MPI process:                     1

     MPI processes distributed on     4 nodes
     241974 MiB available memory on the printing compute node when the environment starts

     Reading input from Ag_mp-10597_111_hollow_1.in

     Current dimensions of program PWSCF are:
     Max number of different atomic species (ntypx) = 10
     Max number of k-points (npk) =  40000
     Max angular momentum in pseudopotentials (lmaxx) =  4
     Message from routine iosys:
     restart disabled: needed files not found

     K-points division:     npool     =       4
     R & G space division:  proc/nbgrp/npool/nimage =      64
     Subspace diagonalization in iterative solution of the eigenvalue problem:
     a serial algorithm will be used


     Parallelization info
     --------------------
     sticks:   dense  smooth     PW     G-vecs:    dense   smooth      PW
     Min          55      24      7                13633     3975     601
     Max          56      25      8                13654     4002     626
     Sum        3537    1553    451               872941   254887   39265

     Using Slab Decomposition



     bravais-lattice index     =            0
     lattice parameter (alat)  =       9.5650  a.u.
     unit-cell volume          =    4624.4342 (a.u.)^3
     number of atoms/cell      =           13
     number of atomic types    =            2
     number of electrons       =       135.00
     number of Kohn-Sham states=           82
     kinetic-energy cutoff     =      55.0000  Ry
     charge density cutoff     =     500.0000  Ry
     scf convergence threshold =      1.0E-06
     mixing beta               =       0.3000
     number of iterations used =            8  plain     mixing
     energy convergence thresh.=      1.0E-04
     force convergence thresh. =      1.0E-03
     Exchange-correlation= PBE
                           (   1   4   3   4   0   0   0)
     nstep                     =          500


     celldm(1)=   9.564982  celldm(2)=   0.000000  celldm(3)=   0.000000
     celldm(4)=   0.000000  celldm(5)=   0.000000  celldm(6)=   0.000000

     crystal axes: (cart. coord. in units of alat)
               a(1) = (   0.996905   0.000000  -0.078615 )  
               a(2) = (   0.498151   0.972709  -0.043130 )  
               a(3) = (   0.000000   0.000000   5.449661 )  

     reciprocal axes: (cart. coord. in units 2 pi/alat)
               b(1) = (  1.003105 -0.513718  0.000000 )  
               b(2) = ( -0.000000  1.028057  0.000000 )  
               b(3) = (  0.014470  0.000726  0.183498 )  


     PseudoPot. # 1 for Li read from file:
     /home/ecastro/trabajo_final/pseudos/Li.pbe-s-rrkjus_psl.1.0.0.UPF
     MD5 check sum: 9f98d2529904d60b716d33989e9bc179
     Pseudo is Ultrasoft, Zval =  3.0
     Generated using &quot;atomic&quot; code by A. Dal Corso  v.6.3MaX
     Using radial grid of 1017 points,  4 beta functions with: 
                l(1) =   0
                l(2) =   0
                l(3) =   1
                l(4) =   1
     Q(r) pseudized with 0 coefficients 


     PseudoPot. # 2 for Ag read from file:
     /home/ecastro/trabajo_final/pseudos/Ag.pbe-n-rrkjus_psl.1.0.0.UPF
     MD5 check sum: 81cdf87bacf708300839c66ee23ce017
     Pseudo is Ultrasoft + core correction, Zval = 11.0
     Generated using &quot;atomic&quot; code by A. Dal Corso  v.6.2.2
     Using radial grid of 1237 points,  6 beta functions with: 
                l(1) =   0
                l(2) =   0
                l(3) =   1
                l(4) =   1
                l(5) =   2
                l(6) =   2
     Q(r) pseudized with 0 coefficients 


     atomic species   valence    mass     pseudopotential
        Li             3.00     6.94100     Li( 1.00)
        Ag            11.00   107.86820     Ag( 1.00)

     No symmetry found



   Cartesian axes

     site n.     atom                  positions (alat units)
         1           Ag  tau(   1) = (   1.1372943   0.4987616   3.3701060  )
         2           Ag  tau(   2) = (   0.4676383   0.0561842   3.3048340  )
         3           Ag  tau(   3) = (   0.6186396   0.5853878   3.1667163  )
         4           Ag  tau(   4) = (   0.9408980   0.1328892   3.0000280  )
         5           Ag  tau(   5) = (   1.0960280   0.6660941   2.8431608  )
         6           Ag  tau(   6) = (   0.4207263   0.2220314   2.7599063  )
         7           Ag  tau(   7) = (   0.5758774   0.7506774   2.6073170  )
         8           Ag  tau(   8) = (   0.8974807   0.3066147   2.4454478  )
         9           Ag  tau(   9) = (   1.0526318   0.8352608   2.2928585  )
        10           Ag  tau(  10) = (   0.3773301   0.3911981   2.2096039  )
        11           Ag  tau(  11) = (   0.5324812   0.9198442   2.0570146  )
        12           Ag  tau(  12) = (   0.8540846   0.4757815   1.8951454  )
        13           Li  tau(  13) = (   1.3863225   0.8537402   3.7652403  )

     --------------------------------------------
     DFT-D3 Dispersion Correction (no 3-body):
     --------------------------------------------
       Reference C6 values for interpolation: 

         atom   Coordination number   C6
         Li         0.000          2326.89
         Li         0.987           170.64
         Ag         0.000           853.49
         Ag         0.968           537.23

       Values used:

         atom   Coordination number  R0_AB[au]  C6      C8
         Ag         5.497            3.147    537.23  47741.54
         Ag         6.189            3.147    537.23  47741.54
         Ag         7.249            3.147    537.23  47741.54
         Ag         7.976            3.147    537.23  47741.54
         Ag         8.680            3.147    537.23  47741.54
         Ag         8.570            3.147    537.23  47741.54
         Ag         8.566            3.147    537.23  47741.54
         Ag         8.561            3.147    537.23  47741.54
         Ag         7.907            3.147    537.23  47741.54
         Ag         7.164            3.147    537.23  47741.54
         Ag         5.783            3.147    537.23  47741.54
         Ag         4.319            3.147    537.23  47741.54
         Li         1.040            3.303    181.23  13700.51

         Molecular C6 ( Ry / a.u.^6 ) =     84606.42


     number of k points=    34  Methfessel-Paxton smearing, width (Ry)=  0.0300
                       cart. coord. in units 2pi/alat
        k(    1) = (   0.0000000   0.0000000   0.0000000), wk =   0.0312500
        k(    2) = (   0.0000000   0.1285071   0.0000000), wk =   0.0625000
        k(    3) = (   0.0000000   0.2570142   0.0000000), wk =   0.0625000
        k(    4) = (   0.0000000   0.3855213   0.0000000), wk =   0.0625000
        k(    5) = (   0.0000000  -0.5140284   0.0000000), wk =   0.0312500
        k(    6) = (   0.1253881  -0.0642147   0.0000000), wk =   0.0625000
        k(    7) = (   0.1253881   0.0642924   0.0000000), wk =   0.0625000
        k(    8) = (   0.1253881   0.1927995   0.0000000), wk =   0.0625000
        k(    9) = (   0.1253881   0.3213066   0.0000000), wk =   0.0625000
        k(   10) = (   0.1253881  -0.5782431   0.0000000), wk =   0.0625000
        k(   11) = (   0.1253881  -0.4497360   0.0000000), wk =   0.0625000
        k(   12) = (   0.1253881  -0.3212289   0.0000000), wk =   0.0625000
        k(   13) = (   0.1253881  -0.1927218   0.0000000), wk =   0.0625000
        k(   14) = (   0.2507761  -0.1284294   0.0000000), wk =   0.0625000
        k(   15) = (   0.2507761   0.0000777   0.0000000), wk =   0.0625000
        k(   16) = (   0.2507761   0.1285848   0.0000000), wk =   0.0625000
        k(   17) = (   0.2507761   0.2570919   0.0000000), wk =   0.0625000
        k(   18) = (   0.2507761  -0.6424578   0.0000000), wk =   0.0625000
        k(   19) = (   0.2507761  -0.5139507   0.0000000), wk =   0.0625000
        k(   20) = (   0.2507761  -0.3854436   0.0000000), wk =   0.0625000
        k(   21) = (   0.2507761  -0.2569365   0.0000000), wk =   0.0625000
        k(   22) = (   0.3761642  -0.1926441   0.0000000), wk =   0.0625000
        k(   23) = (   0.3761642  -0.0641370   0.0000000), wk =   0.0625000
        k(   24) = (   0.3761642   0.0643701   0.0000000), wk =   0.0625000
        k(   25) = (   0.3761642   0.1928772   0.0000000), wk =   0.0625000
        k(   26) = (   0.3761642  -0.7066725   0.0000000), wk =   0.0625000
        k(   27) = (   0.3761642  -0.5781654   0.0000000), wk =   0.0625000
        k(   28) = (   0.3761642  -0.4496583   0.0000000), wk =   0.0625000
        k(   29) = (   0.3761642  -0.3211512   0.0000000), wk =   0.0625000
        k(   30) = (  -0.5015523   0.2568588   0.0000000), wk =   0.0312500
        k(   31) = (  -0.5015523   0.3853659   0.0000000), wk =   0.0625000
        k(   32) = (  -0.5015523   0.5138730   0.0000000), wk =   0.0625000
        k(   33) = (  -0.5015523   0.6423801   0.0000000), wk =   0.0625000
        k(   34) = (  -0.5015523  -0.2571697   0.0000000), wk =   0.0312500

     Dense  grid:   872941 G-vectors     FFT dimensions: (  72,  75, 375)

     Smooth grid:   254887 G-vectors     FFT dimensions: (  45,  50, 250)

     Estimated max dynamical RAM per process >      31.34 MB

     Estimated total dynamical RAM >       7.21 GB
     Cannot read rho : file not found

     Initial potential from superposition of free atoms

     starting charge     134.9906, renormalised to     135.0000

     negative rho (up, down):  9.914E-05 0.000E+00
     Message from routine qexsd_readschema :
     xml data file ./Ag_mp-10597_111_hollow_1/Ag_mp-10597_111_hollow_1.save/data-file
     Cannot read wfcs: file not found
     Starting wfcs are  113 randomized atomic wfcs

     total cpu time spent up to now is        4.3 secs

     per-process dynamical memory:   186.3 Mb

     Self-consistent Calculation

     iteration #  1     ecut=    55.00 Ry     beta= 0.30
     Davidson diagonalization with overlap
     c_bands:  1 eigenvalues not converged
     c_bands:  1 eigenvalues not converged
     c_bands:  1 eigenvalues not converged
     c_bands:  2 eigenvalues not converged
     c_bands:  2 eigenvalues not converged
     c_bands:  1 eigenvalues not converged
     c_bands:  1 eigenvalues not converged
     ethr =  1.00E-05,  avg # of iterations = 19.4

     negative rho (up, down):  8.129E-05 0.000E+00

     total cpu time spent up to now is       11.5 secs

     total energy              =   -1025.98886396 Ry
     estimated scf accuracy    <       0.68035921 Ry

     iteration #  2     ecut=    55.00 Ry     beta= 0.30
     Davidson diagonalization with overlap
     ethr =  5.04E-04,  avg # of iterations =  9.1

     negative rho (up, down):  8.205E-05 0.000E+00

     total cpu time spent up to now is       14.0 secs

     total energy              =   -1025.55783445 Ry
     estimated scf accuracy    <       9.02530136 Ry

     iteration #  3     ecut=    55.00 Ry     beta= 0.30
     Davidson diagonalization with overlap
     ethr =  5.04E-04,  avg # of iterations =  9.5

     negative rho (up, down):  9.470E-05 0.000E+00

     total cpu time spent up to now is       16.6 secs

     total energy              =   -1026.12860368 Ry
     estimated scf accuracy    <       2.06324214 Ry

     iteration #  4     ecut=    55.00 Ry     beta= 0.30
     Davidson diagonalization with overlap
     ethr =  5.04E-04,  avg # of iterations =  2.0

     negative rho (up, down):  6.092E-05 0.000E+00

     total cpu time spent up to now is       17.8 secs

     total energy              =   -1026.20115463 Ry
     estimated scf accuracy    <       0.13660542 Ry

     iteration #  5     ecut=    55.00 Ry     beta= 0.30
     Davidson diagonalization with overlap
     ethr =  1.01E-04,  avg # of iterations =  7.8

     negative rho (up, down):  4.031E-05 0.000E+00

     total cpu time spent up to now is       19.8 secs

     total energy              =   -1026.19673039 Ry
     estimated scf accuracy    <       0.04366150 Ry

     iteration #  6     ecut=    55.00 Ry     beta= 0.30
     Davidson diagonalization with overlap
     ethr =  3.23E-05,  avg # of iterations = 10.6

     negative rho (up, down):  4.594E-05 0.000E+00

     total cpu time spent up to now is       22.1 secs

     total energy              =   -1026.20059360 Ry
     estimated scf accuracy    <       0.00138622 Ry

     iteration #  7     ecut=    55.00 Ry     beta= 0.30
     Davidson diagonalization with overlap
     ethr =  1.03E-06,  avg # of iterations =  4.6

     negative rho (up, down):  7.584E-05 0.000E+00

     total cpu time spent up to now is       24.1 secs

     total energy              =   -1026.20079291 Ry
     estimated scf accuracy    <       0.00078563 Ry

     iteration #  8     ecut=    55.00 Ry     beta= 0.30
     Davidson diagonalization with overlap
     ethr =  5.82E-07,  avg # of iterations =  4.5

     negative rho (up, down):  7.109E-05 0.000E+00

     total cpu time spent up to now is       25.8 secs

     total energy              =   -1026.20088291 Ry
     estimated scf accuracy    <       0.00029040 Ry

     iteration #  9     ecut=    55.00 Ry     beta= 0.30
     Davidson diagonalization with overlap
     ethr =  2.15E-07,  avg # of iterations =  2.1

     negative rho (up, down):  7.068E-05 0.000E+00

     total cpu time spent up to now is       27.1 secs

     total energy              =   -1026.20093208 Ry
     estimated scf accuracy    <       0.00003229 Ry

     iteration # 10     ecut=    55.00 Ry     beta= 0.30
     Davidson diagonalization with overlap
     ethr =  2.39E-08,  avg # of iterations =  4.6

     negative rho (up, down):  5.721E-05 0.000E+00

     total cpu time spent up to now is       28.6 secs

     total energy              =   -1026.20093805 Ry
     estimated scf accuracy    <       0.00000200 Ry

     iteration # 11     ecut=    55.00 Ry     beta= 0.30
     Davidson diagonalization with overlap
     ethr =  1.48E-09,  avg # of iterations =  5.1

     negative rho (up, down):  3.069E-05 0.000E+00

     total cpu time spent up to now is       30.3 secs

     End of self-consistent calculation

          k = 0.0000 0.0000 0.0000 ( 31927 PWs)   bands (ev):

   -47.0533  -5.4027  -4.3180  -4.2105  -4.1232  -4.0877  -3.7929  -3.7288
    -3.6971  -3.6747  -3.6180  -3.5931  -3.5752  -3.4645  -3.4084  -3.3696
    -3.3267  -3.1556  -3.0318  -3.0154  -2.9616  -2.8958  -2.8578  -2.8302
    -2.7910  -2.7333  -2.6818  -2.6631  -2.6157  -2.5770  -2.5331  -2.4986
    -2.4310  -2.4085  -2.3773  -2.3600  -2.3250  -2.2528  -2.2041  -2.1856
    -2.1459  -2.1284  -2.0422  -2.0023  -1.9399  -1.8786  -1.8602  -1.7686
    -1.7141  -1.6214  -1.6099  -1.4900  -1.4293  -1.3895  -1.3815  -1.3175
    -1.2890  -1.2472  -1.2391  -1.2162  -1.1983  -1.1541  -1.1333  -0.6580
     0.8090   2.0943   2.1646   3.1256   3.2274   3.2942   3.4262   4.2162
     4.4724   4.7176   4.7443   5.0311   5.2812   5.3381   5.6766   5.8984
     6.1777   6.3378

          k = 0.0000 0.1285 0.0000 ( 31864 PWs)   bands (ev):

   -47.0532  -5.2950  -4.2885  -4.2232  -4.1355  -3.9372  -3.7966  -3.7730
    -3.7332  -3.7099  -3.6457  -3.6243  -3.5009  -3.3773  -3.3591  -3.3170
    -3.2801  -3.1754  -3.0712  -2.9921  -2.9673  -2.8976  -2.8696  -2.8482
    -2.8290  -2.7579  -2.7397  -2.6585  -2.6411  -2.5873  -2.5387  -2.5005
    -2.4637  -2.4471  -2.4152  -2.3778  -2.3230  -2.2815  -2.2194  -2.1760
    -2.1395  -2.0644  -2.0502  -1.9707  -1.9246  -1.9106  -1.8396  -1.7633
    -1.7081  -1.6069  -1.5651  -1.5079  -1.4245  -1.4183  -1.3799  -1.3368
    -1.2878  -1.2787  -1.2433  -1.2026  -1.1723  -1.1147  -1.0571  -0.5899
     0.9043   1.2512   2.1719   2.4621   2.8761   3.4242   3.4771   4.0205
     4.4984   4.5800   4.7213   5.1110   5.3735   5.4319   5.7664   5.9469
     6.3702   6.5479

          k = 0.0000 0.2570 0.0000 ( 31870 PWs)   bands (ev):

   -47.0533  -4.9880  -4.2685  -4.1391  -4.0226  -3.9488  -3.8842  -3.7541
    -3.7114  -3.6562  -3.6257  -3.5143  -3.4678  -3.4221  -3.3281  -3.2048
    -3.1778  -3.1509  -3.0977  -3.0493  -3.0056  -2.9545  -2.9320  -2.8758
    -2.8415  -2.8259  -2.7432  -2.7292  -2.6738  -2.6516  -2.5767  -2.5463
    -2.5053  -2.4542  -2.3937  -2.3716  -2.3042  -2.2657  -2.2180  -2.1814
    -2.1539  -2.0988  -2.0138  -2.0046  -1.9236  -1.8647  -1.8376  -1.6863
    -1.6176  -1.5933  -1.5372  -1.5189  -1.4731  -1.4152  -1.3671  -1.3088
    -1.2714  -1.2512  -1.2205  -1.1878  -1.1726  -1.0986  -1.0737  -0.3494
    -0.0386   1.1000   1.2739   2.4601   2.5322   2.8770   3.5130   3.7517
     4.1224   4.3426   4.6186   4.8460   5.4487   5.6392   5.7203   5.8228
     6.3123   6.6451

          k = 0.0000 0.3855 0.0000 ( 31856 PWs)   bands (ev):

   -47.0533  -4.5499  -4.1648  -4.0948  -4.0416  -3.9295  -3.8314  -3.7475
    -3.7028  -3.6631  -3.5915  -3.5366  -3.4397  -3.3768  -3.3188  -3.2636
    -3.1726  -3.1251  -3.0948  -3.0295  -2.9908  -2.9745  -2.9512  -2.9073
    -2.8723  -2.8466  -2.7823  -2.7562  -2.6929  -2.6539  -2.6277  -2.5748
    -2.5467  -2.4616  -2.4003  -2.3797  -2.3165  -2.2814  -2.1815  -2.1582
    -2.1212  -2.0580  -2.0087  -1.9859  -1.8444  -1.7681  -1.7372  -1.6824
    -1.5993  -1.5778  -1.5326  -1.4986  -1.4695  -1.4238  -1.3461  -1.3246
    -1.2829  -1.2656  -1.2394  -1.2023  -1.1711  -1.1520  -1.0867  -1.0244
     0.0018   0.1559   1.6923   1.7760   2.4237   2.8776   3.3129   3.5452
     3.8838   4.1463   4.4827   4.8462   5.3527   5.3830   5.9165   6.0254
     6.1394   6.2942

          k = 0.0000-0.5140 0.0000 ( 31844 PWs)   bands (ev):

   -47.0533  -4.1899  -4.1502  -4.0990  -4.0339  -3.9305  -3.8424  -3.7874
    -3.7384  -3.6919  -3.6050  -3.4827  -3.4087  -3.3762  -3.3347  -3.2834
    -3.2031  -3.1576  -3.1149  -3.0149  -2.9863  -2.9607  -2.9377  -2.8846
    -2.8695  -2.8313  -2.7720  -2.7128  -2.6861  -2.6747  -2.6336  -2.6249
    -2.5641  -2.4858  -2.4234  -2.3877  -2.3169  -2.2898  -2.2099  -2.1630
    -2.0983  -2.0102  -1.9891  -1.9174  -1.7660  -1.7037  -1.6695  -1.6202
    -1.5961  -1.5644  -1.5564  -1.5159  -1.5023  -1.4841  -1.4648  -1.4358
    -1.3631  -1.2990  -1.2177  -1.2093  -1.1859  -1.1511  -1.1362  -0.8957
    -0.6789   0.6946   0.9895   2.2129   2.4129   2.5778   3.3545   3.5556
     3.8172   3.8530   4.4481   4.9866   5.3182   5.3888   5.8581   5.9756
     6.0235   6.4428

          k = 0.1254-0.0642 0.0000 ( 31889 PWs)   bands (ev):

   -47.0533  -5.2785  -4.2790  -4.1806  -4.1376  -4.0095  -3.9235  -3.8355
    -3.8009  -3.6954  -3.6164  -3.5768  -3.5320  -3.4556  -3.3632  -3.2854
    -3.2462  -3.1404  -3.0737  -3.0298  -2.9811  -2.9299  -2.9022  -2.8623
    -2.8232  -2.7116  -2.7004  -2.6830  -2.5728  -2.5396  -2.5052  -2.4804
    -2.4175  -2.4086  -2.3815  -2.3488  -2.2711  -2.2296  -2.1781  -2.1494
    -2.1134  -2.0741  -2.0275  -1.9736  -1.9513  -1.8574  -1.8424  -1.7862
    -1.7143  -1.6259  -1.5911  -1.4785  -1.4654  -1.4220  -1.3798  -1.3467
    -1.3119  -1.2858  -1.2443  -1.2152  -1.1491  -1.1272  -1.0936  -0.6065
     0.9024   2.0579   2.1696   2.2075   2.9623   3.1302   3.4417   3.6670
     4.2953   4.4477   4.5889   5.0761   5.2462   5.3580   5.4422   5.8455
     6.0209   6.2366

          k = 0.1254 0.0643 0.0000 ( 31896 PWs)   bands (ev):

   -47.0533  -5.2784  -4.2857  -4.1842  -4.1331  -3.9997  -3.9206  -3.8324
    -3.8112  -3.6723  -3.6418  -3.5714  -3.4915  -3.4461  -3.4134  -3.3342
    -3.2350  -3.1504  -3.0756  -3.0205  -2.9698  -2.9312  -2.8819  -2.8578
    -2.8032  -2.7750  -2.6968  -2.6458  -2.5880  -2.5352  -2.5234  -2.4805
    -2.4456  -2.3968  -2.3525  -2.3277  -2.2770  -2.2556  -2.1950  -2.1347
    -2.1129  -2.0493  -2.0241  -1.9596  -1.9257  -1.8933  -1.8320  -1.7861
    -1.6798  -1.6336  -1.5872  -1.5157  -1.4468  -1.4221  -1.3924  -1.3703
    -1.3191  -1.2795  -1.2221  -1.2065  -1.1842  -1.1290  -1.0718  -0.6172
     0.8953   2.0771   2.1469   2.2487   2.9427   3.1711   3.4411   3.6978
     4.2824   4.4154   4.5859   4.9077   5.2953   5.3894   5.4974   5.8627
     6.0747   6.1534

          k = 0.1254 0.1928 0.0000 ( 31885 PWs)   bands (ev):

   -47.0533  -5.0712  -4.2603  -4.1599  -4.0742  -3.8973  -3.8902  -3.8312
    -3.7937  -3.7628  -3.6271  -3.6188  -3.4959  -3.4536  -3.3239  -3.2943
    -3.1664  -3.1210  -3.0702  -3.0314  -2.9785  -2.9384  -2.8992  -2.8749
    -2.8422  -2.7727  -2.7347  -2.7059  -2.6380  -2.5743  -2.5391  -2.5134
    -2.4479  -2.4127  -2.3610  -2.3407  -2.2862  -2.2346  -2.2093  -2.1615
    -2.1057  -2.0834  -2.0194  -1.9508  -1.9241  -1.8617  -1.8386  -1.7406
    -1.6615  -1.6247  -1.5464  -1.5200  -1.4746  -1.4097  -1.3921  -1.3482
    -1.3192  -1.2645  -1.2161  -1.1959  -1.1597  -1.0993  -1.0534  -0.4644
     0.7748   1.0935   1.6826   1.9238   2.3917   3.1322   3.4401   3.7266
     3.8662   4.6232   4.7613   4.8249   5.2252   5.5508   5.5946   5.9509
     6.4158   6.6193

          k = 0.1254 0.3213 0.0000 ( 31860 PWs)   bands (ev):

   -47.0533  -4.6955  -4.2003  -4.0592  -4.0032  -3.9510  -3.9071  -3.8519
    -3.7976  -3.6933  -3.6053  -3.5459  -3.4423  -3.4148  -3.3556  -3.2188
    -3.1806  -3.1338  -3.0698  -3.0246  -3.0049  -2.9757  -2.9355  -2.9159
    -2.8684  -2.8290  -2.7789  -2.7314  -2.6451  -2.6254  -2.5830  -2.5254
    -2.4803  -2.4175  -2.3859  -2.3074  -2.2892  -2.2222  -2.1942  -2.1415
    -2.1225  -2.0858  -2.0126  -1.9754  -1.8683  -1.8298  -1.7549  -1.6774
    -1.6385  -1.6021  -1.5626  -1.5199  -1.4384  -1.4198  -1.3670  -1.3090
    -1.2847  -1.2625  -1.2432  -1.1998  -1.1643  -1.1404  -1.0798  -0.4312
    -0.0561   0.6585   1.3571   1.5611   2.3696   2.6681   2.8848   3.7943
     4.0567   4.3836   4.5838   5.0211   5.2115   5.4920   5.8303   5.9808
     6.1321   6.6695

          k = 0.1254-0.5782 0.0000 ( 31827 PWs)   bands (ev):

   -47.0532  -4.2750  -4.0945  -4.0504  -4.0260  -3.9719  -3.9142  -3.8115
    -3.7436  -3.6962  -3.5977  -3.5761  -3.4545  -3.3674  -3.3341  -3.2721
    -3.2000  -3.1656  -3.1283  -3.0342  -3.0094  -2.9716  -2.9387  -2.8932
    -2.8546  -2.7848  -2.7540  -2.7280  -2.6959  -2.6676  -2.6350  -2.5815
    -2.4792  -2.4272  -2.4055  -2.3312  -2.3103  -2.2212  -2.1936  -2.1324
    -2.0848  -2.0288  -1.9770  -1.9309  -1.7566  -1.7349  -1.6885  -1.6431
    -1.6098  -1.5931  -1.5485  -1.5193  -1.4764  -1.4508  -1.4275  -1.3359
    -1.3144  -1.2937  -1.2117  -1.1926  -1.1741  -1.1238  -1.1140  -0.9883
    -0.3331   0.4901   1.2721   1.4098   2.0805   2.6142   2.9334   3.3883
     4.0265   4.2533   4.7509   4.7945   5.3437   5.6019   5.8129   5.9489
     6.4377   6.5000

          k = 0.1254-0.4497 0.0000 ( 31830 PWs)   bands (ev):

   -47.0532  -4.2796  -4.0885  -4.0530  -4.0240  -3.9841  -3.9198  -3.8181
    -3.7008  -3.6784  -3.6186  -3.5417  -3.4711  -3.4220  -3.3087  -3.2635
    -3.2126  -3.1650  -3.1106  -3.0626  -2.9889  -2.9795  -2.9434  -2.9125
    -2.8477  -2.8190  -2.7558  -2.7168  -2.6782  -2.6379  -2.6089  -2.5516
    -2.5065  -2.4296  -2.3965  -2.3754  -2.3163  -2.2208  -2.1794  -2.1486
    -2.0611  -2.0191  -1.9403  -1.9234  -1.8149  -1.7421  -1.6983  -1.6519
    -1.6100  -1.5901  -1.5415  -1.5207  -1.4691  -1.4186  -1.4007  -1.3447
    -1.3134  -1.2845  -1.2443  -1.2296  -1.1809  -1.1241  -1.0731  -1.0091
    -0.3422   0.5138   1.1800   1.4527   2.1230   2.5685   2.9531   3.3713
     4.0168   4.3142   4.7524   4.8718   5.2943   5.5577   5.7971   5.9477
     6.3464   6.5299

          k = 0.1254-0.3212 0.0000 ( 31860 PWs)   bands (ev):

   -47.0533  -4.6981  -4.1935  -4.0535  -4.0163  -3.9758  -3.9124  -3.8191
    -3.7619  -3.7349  -3.6117  -3.5021  -3.4465  -3.3740  -3.3091  -3.2696
    -3.1914  -3.1619  -3.1106  -3.0809  -3.0191  -2.9819  -2.9175  -2.8987
    -2.8434  -2.7956  -2.7413  -2.6932  -2.6563  -2.6261  -2.5680  -2.5375
    -2.4865  -2.4247  -2.3796  -2.3513  -2.2810  -2.2376  -2.2084  -2.1355
    -2.0909  -2.0459  -2.0265  -1.9281  -1.9038  -1.8593  -1.7912  -1.6816
    -1.6271  -1.5895  -1.5005  -1.4917  -1.4677  -1.4382  -1.4092  -1.3489
    -1.2815  -1.2545  -1.2228  -1.1971  -1.1857  -1.1423  -1.0642  -0.4104
    -0.0677   0.6267   1.3797   1.5409   2.2722   2.7363   2.8733   3.8049
     4.0788   4.4556   4.5595   5.0466   5.2729   5.5784   5.6822   5.9641
     6.0688   6.5105

          k = 0.1254-0.1927 0.0000 ( 31876 PWs)   bands (ev):

   -47.0533  -5.0720  -4.2506  -4.1503  -4.0921  -3.9173  -3.8724  -3.8277
    -3.8021  -3.7683  -3.6821  -3.5744  -3.4814  -3.3936  -3.3433  -3.2176
    -3.2000  -3.1500  -3.0879  -3.0712  -2.9874  -2.9520  -2.9095  -2.8104
    -2.7995  -2.7896  -2.7210  -2.7075  -2.6045  -2.5851  -2.5500  -2.5252
    -2.4273  -2.4026  -2.3773  -2.3510  -2.2972  -2.2556  -2.1973  -2.1631
    -2.1488  -2.0461  -2.0071  -1.9844  -1.9367  -1.8707  -1.8477  -1.7231
    -1.6742  -1.6238  -1.5606  -1.5129  -1.4498  -1.4197  -1.3782  -1.3354
    -1.3247  -1.2681  -1.2352  -1.1806  -1.1607  -1.0950  -1.0589  -0.4415
     0.7551   1.1197   1.6240   1.9208   2.3883   3.0007   3.5750   3.7374
     3.8496   4.5557   4.7699   4.9905   5.2816   5.5299   5.6305   5.8220
     6.2405   6.5803

          k = 0.2508-0.1284 0.0000 ( 31864 PWs)   bands (ev):

   -47.0533  -4.9281  -4.2350  -4.1233  -4.0812  -4.0402  -3.9715  -3.8989
    -3.8496  -3.8102  -3.6580  -3.6199  -3.5515  -3.3948  -3.3559  -3.2529
    -3.2155  -3.1628  -3.0985  -3.0692  -2.9803  -2.9435  -2.8957  -2.7999
    -2.7790  -2.7220  -2.6717  -2.6373  -2.6035  -2.5662  -2.5304  -2.4849
    -2.4127  -2.3795  -2.3330  -2.2964  -2.2484  -2.2000  -2.1683  -2.0993
    -2.0757  -2.0257  -1.9767  -1.9000  -1.8404  -1.8245  -1.7764  -1.7598
    -1.6752  -1.6449  -1.5641  -1.5290  -1.4761  -1.4337  -1.4009  -1.3663
    -1.2992  -1.2595  -1.2208  -1.1736  -1.1367  -1.1142  -1.0685  -0.3916
     0.6737   1.1947   1.8293   2.0778   2.4422   2.5534   2.8533   3.5160
     3.6621   4.0067   4.4018   4.8902   5.0375   5.3863   5.5291   5.6250
     5.7802   6.2391

          k = 0.2508 0.0001 0.0000 ( 31848 PWs)   bands (ev):

   -47.0532  -5.0247  -4.2642  -4.1274  -4.0755  -4.0392  -4.0126  -3.9691
    -3.9006  -3.7761  -3.6483  -3.5231  -3.4687  -3.4052  -3.3457  -3.2992
    -3.1851  -3.1663  -3.1442  -3.1049  -3.0527  -2.9325  -2.8590  -2.8316
    -2.7979  -2.7335  -2.6870  -2.6288  -2.6094  -2.5832  -2.5078  -2.4953
    -2.4071  -2.3549  -2.3220  -2.2623  -2.2382  -2.2112  -2.1632  -2.1021
    -2.0558  -1.9804  -1.9591  -1.9000  -1.8543  -1.8053  -1.7680  -1.7319
    -1.6756  -1.6310  -1.5715  -1.5593  -1.4785  -1.4120  -1.3852  -1.3608
    -1.3561  -1.2811  -1.2665  -1.2024  -1.1545  -1.0839  -1.0638  -0.4939
     1.0728   1.4113   1.5019   2.3550   2.6599   2.8644   3.0956   3.5693
     3.7732   3.9786   4.4702   4.6983   4.8457   5.2330   5.4560   5.5628
     5.7658   5.9924

          k = 0.2508 0.1286 0.0000 ( 31864 PWs)   bands (ev):

   -47.0533  -4.9271  -4.2303  -4.1278  -4.1024  -4.0252  -3.9642  -3.9161
    -3.8705  -3.7156  -3.6804  -3.6287  -3.5503  -3.4088  -3.3512  -3.3171
    -3.2156  -3.1906  -3.1152  -3.0742  -2.9857  -2.9523  -2.8703  -2.8253
    -2.7755  -2.7231  -2.6732  -2.6277  -2.5947  -2.5596  -2.5177  -2.4900
    -2.3935  -2.3839  -2.3297  -2.2741  -2.2520  -2.1912  -2.1768  -2.1590
    -2.0460  -1.9863  -1.9213  -1.8804  -1.8616  -1.8351  -1.7783  -1.7639
    -1.6649  -1.6117  -1.5895  -1.5303  -1.4889  -1.4267  -1.3807  -1.3627
    -1.3244  -1.2892  -1.2158  -1.1742  -1.1435  -1.1310  -1.0520  -0.4188
     0.6848   1.1946   1.9101   2.1187   2.4393   2.5053   2.9445   3.5473
     3.5862   3.8590   4.3948   4.8306   5.0306   5.2064   5.6570   5.8490
     6.0381   6.3992

          k = 0.2508 0.2571 0.0000 ( 31870 PWs)   bands (ev):

   -47.0533  -4.6556  -4.1659  -4.0964  -4.0582  -4.0040  -3.9203  -3.8808
    -3.8574  -3.8148  -3.6606  -3.6124  -3.5145  -3.4282  -3.3708  -3.3176
    -3.2414  -3.1871  -3.0862  -3.0343  -3.0017  -2.9538  -2.8984  -2.8494
    -2.8124  -2.7520  -2.7199  -2.6911  -2.6035  -2.5587  -2.4904  -2.4408
    -2.4070  -2.3711  -2.3422  -2.3103  -2.2240  -2.1924  -2.1652  -2.1242
    -2.0443  -1.9972  -1.9595  -1.9265  -1.8804  -1.8038  -1.7604  -1.7359
    -1.6720  -1.5940  -1.5294  -1.5017  -1.4631  -1.4076  -1.3579  -1.3440
    -1.3135  -1.2682  -1.2287  -1.2143  -1.1511  -1.1188  -1.0753  -0.1486
     0.2557   0.6030   1.3990   1.5988   1.7439   2.7609   3.0851   3.3177
     3.7165   3.8278   4.4461   4.7390   5.1176   5.2156   5.8925   5.9963
     6.2955   6.5420

          k = 0.2508-0.6425 0.0000 ( 31850 PWs)   bands (ev):

   -47.0533  -4.3079  -4.1289  -4.0649  -4.0240  -3.9832  -3.9470  -3.8583
    -3.8001  -3.7591  -3.6300  -3.5802  -3.4884  -3.4281  -3.3894  -3.2690
    -3.2324  -3.1869  -3.1337  -3.0855  -3.0452  -2.9831  -2.9192  -2.8741
    -2.8321  -2.8064  -2.7744  -2.6913  -2.6589  -2.6126  -2.5361  -2.4763
    -2.4290  -2.3860  -2.3271  -2.2887  -2.2500  -2.1765  -2.1333  -2.0808
    -2.0229  -1.9753  -1.9316  -1.8805  -1.7727  -1.7440  -1.7138  -1.6574
    -1.6226  -1.5954  -1.5664  -1.5032  -1.4827  -1.4311  -1.3820  -1.3348
    -1.2888  -1.2521  -1.2114  -1.1888  -1.1265  -1.1187  -1.0635  -0.4854
     0.0599   0.3654   0.4492   1.3910   2.0018   2.1222   2.9975   3.1889
     3.6444   4.0042   4.6528   4.9561   5.2566   5.5799   6.0024   6.2422
     6.4361   6.6480

          k = 0.2508-0.5140 0.0000 ( 31773 PWs)   bands (ev):

   -47.0532  -4.1845  -4.1619  -4.0257  -3.9547  -3.9113  -3.8774  -3.8503
    -3.8243  -3.7779  -3.6286  -3.4969  -3.4716  -3.4345  -3.3393  -3.3065
    -3.2785  -3.2290  -3.1886  -3.1504  -3.0440  -2.9927  -2.9715  -2.8833
    -2.8550  -2.7744  -2.7119  -2.6839  -2.6330  -2.6084  -2.5626  -2.4799
    -2.4247  -2.4037  -2.3653  -2.3268  -2.2675  -2.1846  -2.1596  -2.0863
    -2.0489  -1.9690  -1.8939  -1.7952  -1.7716  -1.6964  -1.6850  -1.6606
    -1.5945  -1.5657  -1.5023  -1.4736  -1.4602  -1.4066  -1.3728  -1.3256
    -1.2819  -1.2645  -1.2134  -1.1683  -1.1580  -1.1153  -1.0770  -0.6642
    -0.3773   0.0479   0.8862   1.1984   1.5103   2.5252   2.8543   3.0172
     3.6698   4.0527   4.3083   5.0761   5.4493   5.9694   6.2777   6.4574
     6.5601   6.8652

          k = 0.2508-0.3854 0.0000 ( 31842 PWs)   bands (ev):

   -47.0532  -4.3165  -4.1362  -4.0659  -4.0302  -3.9714  -3.9501  -3.8711
    -3.8022  -3.7064  -3.6419  -3.5727  -3.4854  -3.4073  -3.3579  -3.3045
    -3.2232  -3.1957  -3.1130  -3.0838  -3.0191  -2.9869  -2.9416  -2.9207
    -2.8658  -2.8578  -2.7152  -2.6596  -2.6245  -2.5750  -2.5229  -2.4918
    -2.4559  -2.3768  -2.3552  -2.2973  -2.2261  -2.1996  -2.1261  -2.0627
    -2.0447  -1.9961  -1.8948  -1.8448  -1.7925  -1.7626  -1.7353  -1.7005
    -1.6054  -1.5810  -1.5449  -1.4893  -1.4634  -1.4268  -1.3919  -1.3198
    -1.2960  -1.2567  -1.2296  -1.1780  -1.1619  -1.1004  -1.0726  -0.4967
     0.0387   0.3367   0.4548   1.3041   2.0323   2.1482   3.0280   3.1909
     3.6265   4.2885   4.4785   5.0586   5.2586   5.3653   5.7671   6.2407
     6.4350   6.6708

          k = 0.2508-0.2569 0.0000 ( 31875 PWs)   bands (ev):

   -47.0533  -4.6595  -4.1596  -4.1252  -4.0492  -3.9770  -3.9276  -3.8694
    -3.8653  -3.8298  -3.6899  -3.5830  -3.4743  -3.4155  -3.3528  -3.3249
    -3.2488  -3.1364  -3.1107  -3.0357  -3.0110  -2.9799  -2.8848  -2.8298
    -2.8081  -2.7505  -2.6668  -2.6496  -2.6084  -2.5817  -2.5297  -2.4790
    -2.4004  -2.3837  -2.3407  -2.3069  -2.2444  -2.2020  -2.1504  -2.0869
    -2.0544  -2.0372  -1.9733  -1.8974  -1.8713  -1.8165  -1.7749  -1.7153
    -1.6521  -1.5984  -1.5426  -1.5282  -1.4862  -1.4230  -1.3807  -1.3532
    -1.2837  -1.2684  -1.2151  -1.1849  -1.1564  -1.1306  -1.0543  -0.1055
     0.2131   0.5764   1.3018   1.5887   1.7635   2.7718   2.9414   3.4774
     3.6947   4.0755   4.4764   4.7167   5.1048   5.1825   5.6333   5.9240
     6.0517   6.3509

          k = 0.3762-0.1926 0.0000 ( 31840 PWs)   bands (ev):

   -47.0532  -4.4479  -4.2496  -4.1659  -4.0738  -4.0244  -4.0004  -3.8789
    -3.8131  -3.7688  -3.6633  -3.5978  -3.5522  -3.4659  -3.4189  -3.3717
    -3.2685  -3.1834  -3.0791  -3.0424  -3.0028  -2.9718  -2.8617  -2.8066
    -2.7857  -2.7284  -2.6837  -2.6235  -2.6022  -2.5551  -2.4843  -2.4598
    -2.4171  -2.3464  -2.2887  -2.2800  -2.2324  -2.2077  -2.1080  -2.0718
    -2.0039  -1.9691  -1.9172  -1.8576  -1.8326  -1.7869  -1.7529  -1.6876
    -1.6236  -1.5937  -1.5425  -1.4967  -1.4108  -1.3857  -1.3376  -1.3123
    -1.2445  -1.2332  -1.1964  -1.1679  -1.1297  -1.1019  -1.0810  -0.5818
     0.1323   0.5836   1.7300   1.8064   2.0899   2.2353   2.7085   2.9334
     3.2315   3.7821   4.2744   4.3988   4.8386   5.1395   5.4710   5.5860
     6.1571   6.4060

          k = 0.3762-0.0641 0.0000 ( 31882 PWs)   bands (ev):

   -47.0533  -4.5918  -4.2914  -4.1891  -4.1215  -4.0321  -3.9527  -3.8994
    -3.8586  -3.7890  -3.6543  -3.5283  -3.4857  -3.4366  -3.3504  -3.3289
    -3.2782  -3.2415  -3.1104  -3.0283  -2.9910  -2.9542  -2.9032  -2.8206
    -2.7759  -2.7559  -2.7123  -2.6607  -2.6335  -2.5760  -2.5291  -2.4647
    -2.4221  -2.3501  -2.3237  -2.2551  -2.2235  -2.1876  -2.1216  -2.1187
    -2.0372  -1.9487  -1.8878  -1.8376  -1.7952  -1.7742  -1.7099  -1.6601
    -1.6255  -1.5760  -1.5039  -1.4939  -1.4591  -1.3967  -1.3382  -1.3143
    -1.2720  -1.2525  -1.2236  -1.1909  -1.1427  -1.0935  -1.0708  -0.0826
     0.0340   0.9215   1.1573   1.5951   2.1470   2.7610   2.8247   3.2974
     3.4710   4.0236   4.3051   4.4265   4.9334   5.1513   5.3071   5.6353
     5.9921   6.1212

          k = 0.3762 0.0644 0.0000 ( 31884 PWs)   bands (ev):

   -47.0533  -4.5916  -4.2737  -4.2056  -4.1146  -4.0401  -3.9677  -3.9003
    -3.8597  -3.7372  -3.6520  -3.5694  -3.4608  -3.4410  -3.3724  -3.3328
    -3.2732  -3.2539  -3.1592  -3.0693  -2.9744  -2.9493  -2.8779  -2.8546
    -2.8047  -2.7213  -2.6984  -2.6612  -2.6161  -2.5738  -2.5394  -2.4473
    -2.3814  -2.3415  -2.3094  -2.2880  -2.2239  -2.1890  -2.1504  -2.0889
    -2.0609  -1.9311  -1.8847  -1.8393  -1.8024  -1.7375  -1.7074  -1.6484
    -1.6377  -1.5503  -1.5232  -1.4936  -1.4401  -1.3879  -1.3507  -1.3213
    -1.2961  -1.2714  -1.2186  -1.1829  -1.1596  -1.0913  -1.0723  -0.1175
     0.0794   0.9260   1.2377   1.5713   2.0833   2.7449   2.9040   3.3239
     3.4891   3.7994   4.2271   4.5652   4.8444   5.2474   5.4394   5.8638
     5.9702   6.2489

          k = 0.3762 0.1929 0.0000 ( 31850 PWs)   bands (ev):

   -47.0533  -4.4456  -4.2158  -4.1769  -4.0747  -4.0349  -4.0172  -3.8742
    -3.8235  -3.7158  -3.6481  -3.6162  -3.5879  -3.4793  -3.4180  -3.3480
    -3.2865  -3.2576  -3.1659  -3.0566  -3.0165  -2.9428  -2.8921  -2.8367
    -2.7690  -2.7309  -2.6509  -2.6243  -2.5629  -2.5064  -2.4755  -2.4453
    -2.4046  -2.3614  -2.3140  -2.2578  -2.2251  -2.1606  -2.1367  -2.0981
    -1.9786  -1.9412  -1.9272  -1.8868  -1.8529  -1.7499  -1.7232  -1.6934
    -1.6413  -1.5810  -1.5517  -1.4577  -1.4034  -1.3700  -1.3275  -1.3089
    -1.2762  -1.2462  -1.2190  -1.1831  -1.1387  -1.1167  -1.0854  -0.5468
     0.0792   0.7489   1.6792   1.8733   2.0248   2.3191   2.7052   3.0192
     3.1401   3.4662   4.1572   4.4340   4.9242   5.2883   5.7292   6.0197
     6.2264   6.5478

          k = 0.3762-0.7067 0.0000 ( 31862 PWs)   bands (ev):

   -47.0533  -4.2396  -4.2049  -4.1498  -4.0931  -4.0029  -3.9394  -3.8359
    -3.8188  -3.7178  -3.6484  -3.6037  -3.5514  -3.4928  -3.4468  -3.3624
    -3.2959  -3.2307  -3.1403  -3.0729  -3.0190  -2.9730  -2.9220  -2.8445
    -2.8072  -2.7886  -2.7253  -2.6617  -2.5756  -2.5387  -2.5124  -2.4622
    -2.4037  -2.3600  -2.2899  -2.2434  -2.2277  -2.1319  -2.0722  -2.0333
    -1.9741  -1.9449  -1.8974  -1.8769  -1.7920  -1.7516  -1.7195  -1.6754
    -1.6228  -1.5816  -1.5023  -1.4447  -1.4312  -1.3705  -1.3435  -1.3055
    -1.2807  -1.2404  -1.2058  -1.1799  -1.1409  -1.0984  -1.0144  -0.7447
     0.2080   0.4601   0.7933   1.4436   1.9041   2.1681   2.9860   3.2040
     3.3101   3.5042   4.1606   4.4585   4.9018   5.4001   5.8861   6.1589
     6.3066   6.5538

          k = 0.3762-0.5782 0.0000 ( 31805 PWs)   bands (ev):

   -47.0532  -4.2683  -4.2365  -4.0880  -4.0027  -3.9295  -3.8892  -3.8274
    -3.7202  -3.6729  -3.6175  -3.5768  -3.5138  -3.4478  -3.4032  -3.3643
    -3.3278  -3.2434  -3.2145  -3.1471  -3.1003  -2.9543  -2.9130  -2.8821
    -2.8090  -2.7959  -2.7653  -2.7086  -2.6252  -2.5850  -2.5172  -2.4603
    -2.3852  -2.3747  -2.3476  -2.2555  -2.2178  -2.1704  -2.1397  -2.0888
    -1.9971  -1.9332  -1.8581  -1.7855  -1.7429  -1.6927  -1.6627  -1.6268
    -1.5897  -1.5272  -1.4924  -1.4450  -1.3936  -1.3531  -1.3048  -1.2796
    -1.2615  -1.2358  -1.1959  -1.1569  -1.1361  -1.0861  -0.9001  -0.5238
    -0.4178   0.1678   0.4169   1.1780   1.8151   2.1022   2.5955   3.2121
     3.4572   3.8589   4.4293   4.7365   5.1597   5.6821   6.0608   6.2572
     6.5684   6.7154

          k = 0.3762-0.4497 0.0000 ( 31825 PWs)   bands (ev):

   -47.0532  -4.2717  -4.2403  -4.0793  -4.0057  -3.9526  -3.8859  -3.8245
    -3.7184  -3.6829  -3.6290  -3.5517  -3.4705  -3.4492  -3.3943  -3.3601
    -3.3416  -3.2502  -3.2209  -3.0969  -3.0342  -2.9818  -2.9447  -2.8895
    -2.8545  -2.8155  -2.7599  -2.7070  -2.6161  -2.5473  -2.5142  -2.4586
    -2.4314  -2.3706  -2.3117  -2.2560  -2.2328  -2.1841  -2.1451  -2.0560
    -2.0111  -1.9417  -1.8687  -1.7932  -1.7648  -1.6978  -1.6692  -1.5964
    -1.5620  -1.5340  -1.4911  -1.4465  -1.3978  -1.3601  -1.3202  -1.2692
    -1.2596  -1.2354  -1.1796  -1.1645  -1.1006  -1.0751  -0.9064  -0.5287
    -0.4429   0.0335   0.5110   1.1276   1.7404   2.2062   2.7590   2.9994
     3.5270   4.1185   4.3242   4.6327   5.0809   5.5209   6.0417   6.2795
     6.4913   6.7586

          k = 0.3762-0.3212 0.0000 ( 31851 PWs)   bands (ev):

   -47.0533  -4.2532  -4.2205  -4.1411  -4.0797  -4.0186  -3.9625  -3.8321
    -3.7728  -3.7136  -3.6932  -3.6171  -3.4960  -3.4923  -3.4002  -3.3686
    -3.2808  -3.1954  -3.0925  -3.0267  -3.0188  -2.9875  -2.9253  -2.8727
    -2.8599  -2.8114  -2.6761  -2.6193  -2.5902  -2.5428  -2.5005  -2.4841
    -2.4469  -2.3658  -2.2963  -2.2804  -2.1933  -2.1549  -2.0988  -2.0253
    -2.0114  -1.9136  -1.8901  -1.8605  -1.8061  -1.7663  -1.6886  -1.6572
    -1.6263  -1.5578  -1.5300  -1.4482  -1.4316  -1.3896  -1.3350  -1.3123
    -1.2929  -1.2230  -1.2092  -1.1955  -1.1200  -1.0738  -0.9561  -0.8362
     0.2106   0.4666   0.6137   1.4268   1.9525   2.2194   2.9854   3.1322
     3.3794   3.7570   4.3274   4.5215   4.6589   5.0402   5.6548   5.8932
     6.2639   6.6263

          k =-0.5016 0.2569 0.0000 ( 31850 PWs)   bands (ev):

   -47.0533  -4.2506  -4.2124  -4.1495  -4.0953  -4.0553  -3.9312  -3.9020
    -3.7807  -3.7135  -3.6303  -3.5831  -3.5591  -3.5274  -3.5024  -3.3637
    -3.2362  -3.2016  -3.1797  -3.0110  -2.9979  -2.9612  -2.9036  -2.8527
    -2.8364  -2.7587  -2.6414  -2.6109  -2.5672  -2.5224  -2.4982  -2.4733
    -2.3988  -2.3641  -2.3119  -2.2801  -2.1689  -2.1611  -2.1085  -2.0362
    -1.9929  -1.9601  -1.8913  -1.8560  -1.8087  -1.7566  -1.7120  -1.6533
    -1.6158  -1.5493  -1.4956  -1.4116  -1.3743  -1.3647  -1.3422  -1.3165
    -1.2543  -1.2464  -1.1941  -1.1881  -1.1617  -1.1075  -1.0748  -0.5523
    -0.4515   0.7949   1.2607   1.8547   1.8812   2.3350   2.5927   2.7503
     3.0677   3.8149   4.0900   4.2408   4.5933   5.0980   5.4616   5.8254
     6.2787   6.2984

          k =-0.5016 0.3854 0.0000 ( 31842 PWs)   bands (ev):

   -47.0533  -4.3037  -4.2167  -4.1752  -4.1057  -4.0533  -3.9161  -3.8012
    -3.7738  -3.7356  -3.6354  -3.6097  -3.5098  -3.4644  -3.4250  -3.3780
    -3.3005  -3.1937  -3.1630  -3.0315  -2.9759  -2.9631  -2.9336  -2.8840
    -2.8289  -2.7931  -2.7330  -2.6660  -2.5840  -2.5539  -2.4875  -2.4558
    -2.4259  -2.3370  -2.3062  -2.2630  -2.2246  -2.1747  -2.1144  -2.0692
    -1.9893  -1.9358  -1.8499  -1.8290  -1.8208  -1.7392  -1.7015  -1.6437
    -1.5569  -1.5441  -1.4891  -1.4642  -1.3989  -1.3526  -1.3068  -1.2667
    -1.2546  -1.2253  -1.1888  -1.1784  -1.1291  -1.0832  -0.9452  -0.7067
    -0.0837   0.5066   0.8139   1.5940   1.6906   2.3184   2.9009   3.0996
     3.3474   3.7683   4.2103   4.3519   4.6673   5.0477   5.6622   5.9079
     6.2971   6.6292

          k =-0.5016 0.5139 0.0000 ( 31845 PWs)   bands (ev):

   -47.0533  -4.3112  -4.2895  -4.1491  -4.1061  -4.0837  -3.8349  -3.8087
    -3.7745  -3.7076  -3.6326  -3.5238  -3.5019  -3.4570  -3.4026  -3.3766
    -3.2942  -3.2326  -3.1567  -3.1425  -3.0431  -2.9983  -2.9096  -2.8495
    -2.8223  -2.7640  -2.7335  -2.6838  -2.6234  -2.5764  -2.5351  -2.4549
    -2.4203  -2.3443  -2.3109  -2.2689  -2.2432  -2.1927  -2.1488  -2.0863
    -2.0172  -1.9627  -1.8366  -1.8180  -1.7729  -1.7171  -1.6614  -1.6084
    -1.5560  -1.4878  -1.4616  -1.4217  -1.3819  -1.3503  -1.3325  -1.2537
    -1.2457  -1.2188  -1.2008  -1.1861  -1.1482  -1.1094  -0.7813  -0.3589
    -0.2788   0.3915   0.6596   0.9949   2.1005   2.1970   2.5206   3.2488
     3.6113   3.9421   4.5240   4.7870   4.8752   5.1976   5.5954   5.9726
     6.1532   6.4102

          k =-0.5016 0.6424 0.0000 ( 31851 PWs)   bands (ev):

   -47.0533  -4.3006  -4.2028  -4.1783  -4.1042  -4.0500  -3.9115  -3.8072
    -3.7720  -3.7012  -3.6647  -3.5895  -3.5428  -3.4861  -3.4257  -3.3658
    -3.3346  -3.2424  -3.1652  -3.1132  -3.0260  -2.9515  -2.9146  -2.8670
    -2.8184  -2.7828  -2.7455  -2.6192  -2.5690  -2.5156  -2.4671  -2.4392
    -2.4125  -2.3729  -2.3287  -2.2735  -2.2156  -2.1536  -2.0958  -2.0586
    -2.0204  -1.9530  -1.8807  -1.8052  -1.7834  -1.6900  -1.6642  -1.6406
    -1.6115  -1.5592  -1.4922  -1.4388  -1.3852  -1.3402  -1.3222  -1.3013
    -1.2662  -1.2430  -1.2018  -1.1607  -1.1375  -1.1144  -0.9682  -0.6477
    -0.0592   0.6183   0.8440   1.5650   1.6905   2.2028   3.0085   3.1127
     3.3689   3.4180   4.1554   4.3410   4.8339   5.3975   5.8617   6.1927
     6.2831   6.4333

          k =-0.5016-0.2572 0.0000 ( 31840 PWs)   bands (ev):

   -47.0533  -4.2283  -4.2156  -4.1543  -4.0907  -4.0265  -3.9677  -3.8738
    -3.7537  -3.7449  -3.6549  -3.6173  -3.5318  -3.5166  -3.4601  -3.3722
    -3.3541  -3.2849  -3.1873  -3.0762  -2.9991  -2.9694  -2.9008  -2.8415
    -2.8300  -2.7059  -2.6663  -2.6442  -2.5331  -2.5141  -2.4885  -2.4224
    -2.3873  -2.3420  -2.2936  -2.2731  -2.1731  -2.1359  -2.0730  -2.0267
    -1.9896  -1.9608  -1.9157  -1.9093  -1.8105  -1.7365  -1.6946  -1.6422
    -1.5989  -1.5586  -1.4666  -1.4383  -1.4216  -1.3667  -1.3240  -1.3077
    -1.2793  -1.2555  -1.2008  -1.1708  -1.1493  -1.1370  -1.1071  -0.5498
    -0.3541   0.9435   1.2616   1.8588   1.9009   2.1658   2.6251   2.8477
     3.0290   3.4246   4.0309   4.1860   4.8170   5.4295   5.9216   5.9791
     6.3087   6.4924

     the Fermi energy is     1.7867 ev

!    total energy              =   -1026.20093924 Ry
     estimated scf accuracy    <       0.00000064 Ry
     smearing contrib. (-TS)   =       0.00030801 Ry
     internal energy E=F+TS    =   -1026.20124725 Ry

     The total energy is F=E-TS. E is the sum of the following terms:
     one-electron contribution =  -10462.95114140 Ry
     hartree contribution      =    5324.68156984 Ry
     xc contribution           =    -271.27818077 Ry
     ewald contribution        =    4383.65537020 Ry
     DFT-D3 Dispersion         =      -0.30886511 Ry

     convergence has been achieved in  11 iterations

     negative rho (up, down):  3.069E-05 0.000E+00

     Forces acting on atoms (cartesian axes, Ry/au):

     atom    1 type  2   force =     0.00168714    0.00030597    0.01465533
     atom    2 type  2   force =     0.00054549   -0.00016463    0.01216644
     atom    3 type  2   force =    -0.00061059    0.00111119    0.00433696
     atom    4 type  2   force =    -0.00014935   -0.00023544   -0.00141995
     atom    5 type  2   force =    -0.00241421   -0.00046463   -0.00823925
     atom    6 type  2   force =     0.00227408    0.00126363    0.00012305
     atom    7 type  2   force =    -0.00142014   -0.00019080    0.00354252
     atom    8 type  2   force =     0.00019217   -0.00118153   -0.00189386
     atom    9 type  2   force =    -0.00145581    0.00168819   -0.00600612
     atom   10 type  2   force =     0.00111313   -0.00191421   -0.00600499
     atom   11 type  2   force =    -0.00114142   -0.00094303    0.00275607
     atom   12 type  2   force =     0.00179539   -0.00053536    0.01610919
     atom   13 type  1   force =    -0.00041589    0.00126066   -0.03012539
     The non-local contrib.  to forces
     atom    1 type  2   force =    -0.00238479   -0.02578257    0.06993626
     atom    2 type  2   force =     0.01116271    0.00323322    0.05818949
     atom    3 type  2   force =    -0.00643839    0.01591349    0.02044183
     atom    4 type  2   force =     0.00579467    0.00430680    0.00068520
     atom    5 type  2   force =    -0.00648008   -0.00248145   -0.00085285
     atom    6 type  2   force =     0.00666025    0.00145364    0.01317950
     atom    7 type  2   force =    -0.00341355    0.00082808   -0.00192677
     atom    8 type  2   force =     0.00938468    0.00438083   -0.01587102
     atom    9 type  2   force =    -0.01004811   -0.00796868   -0.01650464
     atom   10 type  2   force =     0.01242548   -0.01436600   -0.02382756
     atom   11 type  2   force =    -0.02036924   -0.00310298   -0.07784822
     atom   12 type  2   force =    -0.02141837    0.00811767   -0.17189361
     atom   13 type  1   force =     0.01874085    0.01549108    0.04107342
     The ionic contribution  to forces
     atom    1 type  2   force =     8.58615818   -0.39014399  112.65154245
     atom    2 type  2   force =     8.31046288    0.63747086   99.42794036
     atom    3 type  2   force =     5.92693222    1.29019088   80.92363728
     atom    4 type  2   force =     4.29651842   -0.64392454   57.47796860
     atom    5 type  2   force =     2.51883495    0.28005188   31.38824228
     atom    6 type  2   force =     0.84381073    0.11501697    8.63897567
     atom    7 type  2   force =    -1.19119974   -0.04189333  -14.34106572
     atom    8 type  2   force =    -3.19289628   -0.42980751  -37.53703303
     atom    9 type  2   force =    -4.73797558    0.85439080  -62.76568293
     atom   10 type  2   force =    -5.94516230   -1.49126890  -85.09643331
     atom   11 type  2   force =    -8.99816989   -0.45877542 -104.44416025
     atom   12 type  2   force =    -9.29762118   -0.24366336 -117.89122944
     atom   13 type  1   force =     2.88030759    0.52235566   31.56729804
     The local contribution  to forces
     atom    1 type  2   force =    -8.58074062    0.41667366 -112.69283273
     atom    2 type  2   force =    -8.31993172   -0.64132930  -99.46223975
     atom    3 type  2   force =    -5.92004688   -1.30536692  -80.93228121
     atom    4 type  2   force =    -4.30215609    0.64032030  -57.47522667
     atom    5 type  2   force =    -2.51501176   -0.27816698  -31.39280573
     atom    6 type  2   force =    -0.84795817   -0.11480114   -8.65033617
     atom    7 type  2   force =     1.19304770    0.04082530   14.34563483
     atom    8 type  2   force =     3.18336397    0.42395327   37.54693630
     atom    9 type  2   force =     4.74598661   -0.84487882   62.76934762
     atom   10 type  2   force =     5.93297043    1.50373875   85.10505845
     atom   11 type  2   force =     9.01676644    0.46074655  104.51487563
     atom   12 type  2   force =     9.32020196    0.23467472  118.06985497
     atom   13 type  1   force =    -2.90097400   -0.53747007  -31.63826875
     The core correction contribution to forces
     atom    1 type  2   force =     0.00023801    0.00129704   -0.00636767
     atom    2 type  2   force =    -0.00060779   -0.00030270   -0.00553889
     atom    3 type  2   force =     0.00010996   -0.00060941   -0.00304696
     atom    4 type  2   force =     0.00004850    0.00039088   -0.00142646
     atom    5 type  2   force =     0.00028230    0.00006874    0.00085501
     atom    6 type  2   force =    -0.00011089   -0.00031222   -0.00004328
     atom    7 type  2   force =     0.00001573    0.00006457   -0.00011103
     atom    8 type  2   force =     0.00002322    0.00011263   -0.00001107
     atom    9 type  2   force =     0.00020851   -0.00068637    0.00246926
     atom   10 type  2   force =    -0.00039238    0.00088753    0.00421660
     atom   11 type  2   force =     0.00115528    0.00027486    0.00541377
     atom   12 type  2   force =     0.00029051   -0.00011846    0.00541048
     atom   13 type  1   force =     0.00000000    0.00000000    0.00000000
     The Hubbard contrib.    to forces
     atom    1 type  2   force =     0.00000000    0.00000000    0.00000000
     atom    2 type  2   force =     0.00000000    0.00000000    0.00000000
     atom    3 type  2   force =     0.00000000    0.00000000    0.00000000
     atom    4 type  2   force =     0.00000000    0.00000000    0.00000000
     atom    5 type  2   force =     0.00000000    0.00000000    0.00000000
     atom    6 type  2   force =     0.00000000    0.00000000    0.00000000
     atom    7 type  2   force =     0.00000000    0.00000000    0.00000000
     atom    8 type  2   force =     0.00000000    0.00000000    0.00000000
     atom    9 type  2   force =     0.00000000    0.00000000    0.00000000
     atom   10 type  2   force =     0.00000000    0.00000000    0.00000000
     atom   11 type  2   force =     0.00000000    0.00000000    0.00000000
     atom   12 type  2   force =     0.00000000    0.00000000    0.00000000
     atom   13 type  1   force =     0.00000000    0.00000000    0.00000000
     The SCF correction term to forces
     atom    1 type  2   force =    -0.00024751   -0.00014300   -0.00198409
     atom    2 type  2   force =    -0.00003618    0.00002225   -0.00117578
     atom    3 type  2   force =    -0.00018875    0.00017254   -0.00057151
     atom    4 type  2   force =    -0.00015529   -0.00024693   -0.00027654
     atom    5 type  2   force =     0.00021743    0.00014959   -0.00025535
     atom    6 type  2   force =    -0.00001191   -0.00007115   -0.00055209
     atom    7 type  2   force =    -0.00006964    0.00003057   -0.00050117
     atom    8 type  2   force =    -0.00004383    0.00000455   -0.00016596
     atom    9 type  2   force =     0.00005748    0.00003759    0.00012095
     atom   10 type  2   force =     0.00005897   -0.00006382    0.00024842
     atom   11 type  2   force =    -0.00002348    0.00001432    0.00023647
     atom   12 type  2   force =     0.00002056    0.00007179   -0.00006034
     atom   13 type  1   force =    -0.00009246   -0.00004712   -0.00028639

     DFT-D3 dispersion contribution to forces:
     atom    1 type  2   force =    -0.00134533   -0.00159973   -0.00570857
     atom    2 type  2   force =    -0.00051362    0.00073648   -0.00507867
     atom    3 type  2   force =    -0.00098795    0.00080604   -0.00391215
     atom    4 type  2   force =    -0.00020877   -0.00108652   -0.00321376
     atom    5 type  2   force =    -0.00026625   -0.00009095   -0.00349228
     atom    6 type  2   force =    -0.00012514   -0.00002702   -0.00117025
     atom    7 type  2   force =     0.00019015   -0.00005055    0.00144270
     atom    8 type  2   force =     0.00035120    0.00017013    0.00418123
     atom    9 type  2   force =     0.00030608    0.00078911    0.00417394
     atom   10 type  2   force =     0.00120372   -0.00084634    0.00466272
     atom   11 type  2   force =    -0.00050974   -0.00010492    0.00416900
     atom   12 type  2   force =     0.00031270    0.00037772    0.00395746
     atom   13 type  1   force =     0.00159293    0.00092655   -0.00001138

     Total force =     0.041869     Total SCF correction =     0.002633


     Computing stress (Cartesian axis) and pressure


     negative rho (up, down):  3.069E-05 0.000E+00
          total   stress  (Ry/bohr**3)                   (kbar)     P=      -16.93
  -0.00013063   0.00000071   0.00000648          -19.22        0.10        0.95
   0.00000071  -0.00011707   0.00000785            0.10      -17.22        1.15
   0.00000648   0.00000785  -0.00009757            0.95        1.15      -14.35


     BFGS Geometry Optimization
     Energy error            =      0.0E+00 Ry
     Gradient error          =      3.0E-02 Ry/Bohr

     number of scf cycles    =   1
     number of bfgs steps    =   0

     energy             new  =   -1026.2009392356 Ry

     new trust radius        =       0.0301546251 bohr
     new conv_thr            =       0.0000010000 Ry


ATOMIC_POSITIONS (angstrom)
Ag            5.7573880825        2.5246788850       17.0657848930
Ag            2.3672730463        0.2842931108       16.7340888648
Ag            3.1309648105        2.9635698768       16.0308529943
Ag            4.7623427420        0.6725036146       15.1841022575
Ag            5.5463453668        3.3712363027       14.3864992882
Ag            2.1307391073        1.1244960763       13.9695257251
Ag            2.9140924171        3.7995059260       13.1989934776
Ag            4.5427638532        1.5513268702       12.3768044828
Ag            5.3271999816        4.2286249656       11.6022866172
Ag            1.9104722097        1.9790638744       11.1808885106
Ag            2.6945873584        4.6553573048       10.4131829141
Ag            4.3239596929        2.4079182509        9.6009368951
Li            7.0167490663        4.3219331978       19.0420879556



     Writing config-only to output data dir ./Ag_mp-10597_111_hollow_1/Ag_mp-10597_111_hollow_1.save/
     NEW-OLD atomic charge density approx. for the potential

     negative rho (up, down):  3.108E-05 0.000E+00

     total cpu time spent up to now is       35.2 secs

     per-process dynamical memory:   197.0 Mb

     Self-consistent Calculation

     iteration #  1     ecut=    55.00 Ry     beta= 0.30
     Davidson diagonalization with overlap
     ethr =  1.00E-06,  avg # of iterations =  4.0

     Threshold (ethr) on eigenvalues was too large:
     Diagonalizing with lowered threshold

     Davidson diagonalization with overlap
     ethr =  2.13E-08,  avg # of iterations =  6.1

     negative rho (up, down):  3.096E-05 0.000E+00

     total cpu time spent up to now is       40.6 secs

     total energy              =   -1026.20266554 Ry
     estimated scf accuracy    <       0.00003457 Ry

     iteration #  2     ecut=    55.00 Ry     beta= 0.30
     Davidson diagonalization with overlap
     ethr =  2.56E-08,  avg # of iterations =  2.0

     negative rho (up, down):  3.877E-05 0.000E+00

     total cpu time spent up to now is       41.9 secs

     total energy              =   -1026.20265359 Ry
     estimated scf accuracy    <       0.00028580 Ry

     iteration #  3     ecut=    55.00 Ry     beta= 0.30
     Davidson diagonalization with overlap
     ethr =  2.56E-08,  avg # of iterations =  1.5

     negative rho (up, down):  3.819E-05 0.000E+00

     total cpu time spent up to now is       43.1 secs

     total energy              =   -1026.20266945 Ry
     estimated scf accuracy    <       0.00004499 Ry

     iteration #  4     ecut=    55.00 Ry     beta= 0.30
     Davidson diagonalization with overlap
     ethr =  2.56E-08,  avg # of iterations =  1.0

     negative rho (up, down):  3.566E-05 0.000E+00

     total cpu time spent up to now is       44.3 secs

     total energy              =   -1026.20267152 Ry
     estimated scf accuracy    <       0.00001282 Ry

     iteration #  5     ecut=    55.00 Ry     beta= 0.30
     Davidson diagonalization with overlap
     ethr =  9.49E-09,  avg # of iterations =  1.0

     negative rho (up, down):  3.129E-05 0.000E+00

     total cpu time spent up to now is       45.5 secs

     End of self-consistent calculation

          k = 0.0000 0.0000 0.0000 ( 31927 PWs)   bands (ev):

   -47.0360  -5.4000  -4.3152  -4.2075  -4.1204  -4.0849  -3.7906  -3.7235
    -3.6933  -3.6715  -3.6198  -3.5914  -3.5741  -3.4621  -3.4084  -3.3647
    -3.3278  -3.1521  -3.0323  -3.0168  -2.9653  -2.8936  -2.8572  -2.8294
    -2.7905  -2.7331  -2.6819  -2.6649  -2.6143  -2.5768  -2.5348  -2.4980
    -2.4308  -2.4086  -2.3778  -2.3613  -2.3256  -2.2545  -2.2041  -2.1874
    -2.1490  -2.1300  -2.0438  -2.0037  -1.9404  -1.8785  -1.8601  -1.7685
    -1.7152  -1.6214  -1.6112  -1.4915  -1.4298  -1.3917  -1.3820  -1.3185
    -1.2903  -1.2495  -1.2401  -1.2182  -1.1983  -1.1547  -1.1342  -0.6612
     0.8103   2.1098   2.1654   3.1273   3.2300   3.2971   3.4338   4.2131
     4.4865   4.7145   4.7437   5.0291   5.3011   5.3502   5.6757   5.8985
     6.1782   6.3368

          k = 0.0000 0.1285 0.0000 ( 31864 PWs)   bands (ev):

   -47.0359  -5.2923  -4.2855  -4.2207  -4.1329  -3.9341  -3.7937  -3.7698
    -3.7314  -3.7040  -3.6443  -3.6245  -3.5012  -3.3749  -3.3564  -3.3155
    -3.2804  -3.1730  -3.0733  -2.9916  -2.9661  -2.8982  -2.8697  -2.8472
    -2.8298  -2.7585  -2.7380  -2.6569  -2.6414  -2.5882  -2.5381  -2.5017
    -2.4617  -2.4489  -2.4159  -2.3778  -2.3255  -2.2815  -2.2205  -2.1794
    -2.1422  -2.0656  -2.0514  -1.9707  -1.9252  -1.9122  -1.8398  -1.7630
    -1.7088  -1.6087  -1.5655  -1.5086  -1.4262  -1.4190  -1.3819  -1.3382
    -1.2887  -1.2796  -1.2451  -1.2032  -1.1730  -1.1159  -1.0577  -0.5932
     0.9057   1.2519   2.1869   2.4614   2.8773   3.4281   3.4853   4.0156
     4.4988   4.5927   4.7186   5.1159   5.3921   5.4442   5.7690   5.9497
     6.3701   6.5475

          k = 0.0000 0.2570 0.0000 ( 31870 PWs)   bands (ev):

   -47.0359  -4.9853  -4.2661  -4.1362  -4.0199  -3.9461  -3.8810  -3.7513
    -3.7082  -3.6528  -3.6269  -3.5115  -3.4662  -3.4214  -3.3268  -3.2044
    -3.1754  -3.1504  -3.0970  -3.0491  -3.0040  -2.9540  -2.9339  -2.8737
    -2.8423  -2.8272  -2.7413  -2.7287  -2.6717  -2.6521  -2.5742  -2.5471
    -2.5062  -2.4572  -2.3934  -2.3718  -2.3040  -2.2674  -2.2205  -2.1837
    -2.1566  -2.1000  -2.0149  -2.0057  -1.9234  -1.8659  -1.8385  -1.6863
    -1.6185  -1.5943  -1.5380  -1.5208  -1.4740  -1.4169  -1.3677  -1.3105
    -1.2731  -1.2519  -1.2209  -1.1891  -1.1735  -1.0996  -1.0736  -0.3528
    -0.0383   1.0991   1.2756   2.4751   2.5315   2.8724   3.5144   3.7614
     4.1228   4.3475   4.6169   4.8598   5.4535   5.6551   5.7337   5.8340
     6.3107   6.6532

          k = 0.0000 0.3855 0.0000 ( 31856 PWs)   bands (ev):

   -47.0359  -4.5468  -4.1629  -4.0908  -4.0402  -3.9257  -3.8292  -3.7459
    -3.7009  -3.6612  -3.5898  -3.5350  -3.4388  -3.3745  -3.3179  -3.2620
    -3.1709  -3.1235  -3.0937  -3.0281  -2.9897  -2.9755  -2.9506  -2.9073
    -2.8714  -2.8472  -2.7819  -2.7535  -2.6921  -2.6511  -2.6287  -2.5770
    -2.5472  -2.4660  -2.3976  -2.3808  -2.3174  -2.2856  -2.1805  -2.1572
    -2.1221  -2.0614  -2.0110  -1.9876  -1.8455  -1.7685  -1.7366  -1.6831
    -1.5988  -1.5782  -1.5349  -1.5004  -1.4699  -1.4251  -1.3469  -1.3246
    -1.2839  -1.2668  -1.2412  -1.2026  -1.1728  -1.1531  -1.0880  -1.0247
    -0.0002   0.1519   1.6921   1.7734   2.4227   2.8944   3.3154   3.5473
     3.8854   4.1554   4.4807   4.8563   5.3592   5.3929   5.9229   6.0284
     6.1586   6.3019

          k = 0.0000-0.5140 0.0000 ( 31844 PWs)   bands (ev):

   -47.0359  -4.1839  -4.1465  -4.0997  -4.0331  -3.9267  -3.8379  -3.7873
    -3.7384  -3.6898  -3.6031  -3.4805  -3.4078  -3.3740  -3.3330  -3.2836
    -3.1979  -3.1565  -3.1161  -3.0118  -2.9859  -2.9627  -2.9379  -2.8820
    -2.8665  -2.8338  -2.7697  -2.7108  -2.6843  -2.6744  -2.6361  -2.6267
    -2.5654  -2.4873  -2.4201  -2.3933  -2.3166  -2.2932  -2.2096  -2.1621
    -2.0983  -2.0114  -1.9939  -1.9190  -1.7656  -1.7037  -1.6687  -1.6210
    -1.5966  -1.5655  -1.5564  -1.5158  -1.5024  -1.4842  -1.4657  -1.4396
    -1.3635  -1.2993  -1.2190  -1.2113  -1.1875  -1.1520  -1.1377  -0.8970
    -0.6813   0.6906   0.9831   2.2145   2.4128   2.5864   3.3639   3.5597
     3.8271   3.8548   4.4436   4.9986   5.3284   5.3914   5.8521   5.9888
     6.0365   6.4525

          k = 0.1254-0.0642 0.0000 ( 31889 PWs)   bands (ev):

   -47.0359  -5.2759  -4.2758  -4.1779  -4.1349  -4.0066  -3.9197  -3.8327
    -3.7967  -3.6969  -3.6144  -3.5723  -3.5322  -3.4535  -3.3614  -3.2840
    -3.2445  -3.1401  -3.0739  -3.0284  -2.9802  -2.9294  -2.9012  -2.8644
    -2.8225  -2.7115  -2.7005  -2.6828  -2.5743  -2.5396  -2.5052  -2.4806
    -2.4186  -2.4081  -2.3817  -2.3491  -2.2719  -2.2315  -2.1808  -2.1507
    -2.1156  -2.0742  -2.0286  -1.9755  -1.9533  -1.8571  -1.8418  -1.7871
    -1.7149  -1.6270  -1.5923  -1.4805  -1.4659  -1.4237  -1.3805  -1.3478
    -1.3125  -1.2872  -1.2464  -1.2160  -1.1502  -1.1275  -1.0943  -0.6097
     0.9038   2.0592   2.1755   2.2174   2.9638   3.1297   3.4489   3.6676
     4.2929   4.4443   4.6029   5.0742   5.2478   5.3740   5.4571   5.8497
     6.0218   6.2395

          k = 0.1254 0.0643 0.0000 ( 31896 PWs)   bands (ev):

   -47.0359  -5.2758  -4.2826  -4.1814  -4.1306  -3.9968  -3.9168  -3.8312
    -3.8076  -3.6689  -3.6414  -3.5702  -3.4896  -3.4445  -3.4115  -3.3337
    -3.2339  -3.1502  -3.0749  -3.0188  -2.9683  -2.9294  -2.8837  -2.8584
    -2.8033  -2.7759  -2.6953  -2.6469  -2.5888  -2.5357  -2.5236  -2.4789
    -2.4462  -2.3978  -2.3528  -2.3278  -2.2776  -2.2587  -2.1959  -2.1358
    -2.1149  -2.0523  -2.0241  -1.9614  -1.9270  -1.8931  -1.8315  -1.7862
    -1.6800  -1.6352  -1.5881  -1.5169  -1.4479  -1.4218  -1.3951  -1.3711
    -1.3206  -1.2813  -1.2235  -1.2078  -1.1839  -1.1301  -1.0723  -0.6205
     0.8966   2.0782   2.1564   2.2558   2.9442   3.1706   3.4500   3.6977
     4.2798   4.4112   4.6001   4.9054   5.2999   5.4052   5.5081   5.8612
     6.0789   6.1594

          k = 0.1254 0.1928 0.0000 ( 31885 PWs)   bands (ev):

   -47.0359  -5.0685  -4.2577  -4.1569  -4.0717  -3.8940  -3.8862  -3.8288
    -3.7919  -3.7613  -3.6242  -3.6176  -3.4942  -3.4541  -3.3210  -3.2942
    -3.1661  -3.1196  -3.0689  -3.0311  -2.9791  -2.9368  -2.8992  -2.8725
    -2.8423  -2.7737  -2.7342  -2.7043  -2.6382  -2.5750  -2.5410  -2.5124
    -2.4487  -2.4134  -2.3613  -2.3425  -2.2871  -2.2354  -2.2103  -2.1633
    -2.1065  -2.0857  -2.0202  -1.9514  -1.9254  -1.8620  -1.8396  -1.7407
    -1.6628  -1.6253  -1.5481  -1.5205  -1.4760  -1.4092  -1.3945  -1.3496
    -1.3207  -1.2655  -1.2170  -1.1964  -1.1602  -1.1003  -1.0536  -0.4680
     0.7752   1.0951   1.6837   1.9237   2.4058   3.1300   3.4399   3.7316
     3.8677   4.6220   4.7744   4.8245   5.2296   5.5716   5.6058   5.9632
     6.4217   6.6202

          k = 0.1254 0.3213 0.0000 ( 31860 PWs)   bands (ev):

   -47.0359  -4.6926  -4.1982  -4.0554  -4.0003  -3.9475  -3.9038  -3.8520
    -3.7953  -3.6910  -3.6044  -3.5450  -3.4408  -3.4140  -3.3546  -3.2157
    -3.1797  -3.1329  -3.0677  -3.0235  -3.0036  -2.9753  -2.9334  -2.9166
    -2.8696  -2.8285  -2.7784  -2.7308  -2.6449  -2.6251  -2.5834  -2.5266
    -2.4803  -2.4177  -2.3883  -2.3065  -2.2928  -2.2217  -2.1950  -2.1430
    -2.1250  -2.0860  -2.0142  -1.9768  -1.8700  -1.8296  -1.7550  -1.6785
    -1.6380  -1.6035  -1.5638  -1.5210  -1.4411  -1.4205  -1.3677  -1.3101
    -1.2862  -1.2635  -1.2435  -1.1991  -1.1662  -1.1412  -1.0802  -0.4310
    -0.0601   0.6570   1.3572   1.5636   2.3637   2.6778   2.8885   3.8008
     4.0640   4.3826   4.5825   5.0321   5.2244   5.5020   5.8387   5.9954
     6.1462   6.6790

          k = 0.1254-0.5782 0.0000 ( 31827 PWs)   bands (ev):

   -47.0359  -4.2715  -4.0911  -4.0487  -4.0229  -3.9691  -3.9119  -3.8098
    -3.7397  -3.6982  -3.5950  -3.5761  -3.4522  -3.3653  -3.3320  -3.2711
    -3.1983  -3.1655  -3.1267  -3.0324  -3.0095  -2.9700  -2.9367  -2.8944
    -2.8534  -2.7836  -2.7531  -2.7286  -2.6955  -2.6688  -2.6352  -2.5817
    -2.4787  -2.4258  -2.4077  -2.3336  -2.3129  -2.2223  -2.1930  -2.1326
    -2.0864  -2.0298  -1.9800  -1.9328  -1.7566  -1.7350  -1.6893  -1.6428
    -1.6108  -1.5935  -1.5486  -1.5206  -1.4787  -1.4511  -1.4277  -1.3362
    -1.3161  -1.2947  -1.2138  -1.1932  -1.1746  -1.1244  -1.1153  -0.9897
    -0.3352   0.4856   1.2702   1.4051   2.0832   2.6151   2.9422   3.3977
     4.0335   4.2528   4.7550   4.8027   5.3526   5.6133   5.8253   5.9505
     6.4521   6.5170

          k = 0.1254-0.4497 0.0000 ( 31830 PWs)   bands (ev):

   -47.0359  -4.2760  -4.0846  -4.0519  -4.0213  -3.9808  -3.9187  -3.8154
    -3.6986  -3.6765  -3.6165  -3.5400  -3.4719  -3.4209  -3.3050  -3.2635
    -3.2082  -3.1637  -3.1109  -3.0616  -2.9887  -2.9804  -2.9430  -2.9124
    -2.8469  -2.8178  -2.7554  -2.7144  -2.6786  -2.6372  -2.6089  -2.5519
    -2.5084  -2.4286  -2.3985  -2.3760  -2.3178  -2.2238  -2.1805  -2.1478
    -2.0621  -2.0204  -1.9438  -1.9241  -1.8154  -1.7415  -1.6978  -1.6519
    -1.6120  -1.5902  -1.5423  -1.5198  -1.4717  -1.4195  -1.4020  -1.3460
    -1.3134  -1.2861  -1.2459  -1.2312  -1.1823  -1.1248  -1.0738  -1.0108
    -0.3442   0.5093   1.1770   1.4495   2.1264   2.5682   2.9621   3.3815
     4.0248   4.3122   4.7554   4.8826   5.3026   5.5689   5.8094   5.9509
     6.3585   6.5496

          k = 0.1254-0.3212 0.0000 ( 31860 PWs)   bands (ev):

   -47.0359  -4.6952  -4.1912  -4.0505  -4.0127  -3.9725  -3.9106  -3.8158
    -3.7592  -3.7334  -3.6110  -3.5001  -3.4431  -3.3736  -3.3090  -3.2682
    -3.1893  -3.1609  -3.1104  -3.0799  -3.0174  -2.9832  -2.9181  -2.8987
    -2.8420  -2.7954  -2.7402  -2.6919  -2.6542  -2.6274  -2.5674  -2.5400
    -2.4871  -2.4253  -2.3791  -2.3519  -2.2812  -2.2384  -2.2105  -2.1363
    -2.0935  -2.0470  -2.0292  -1.9291  -1.9044  -1.8601  -1.7925  -1.6812
    -1.6278  -1.5912  -1.5019  -1.4915  -1.4681  -1.4401  -1.4112  -1.3496
    -1.2835  -1.2555  -1.2234  -1.1976  -1.1875  -1.1433  -1.0649  -0.4106
    -0.0715   0.6249   1.3791   1.5441   2.2671   2.7496   2.8730   3.8109
     4.0881   4.4541   4.5608   5.0574   5.2882   5.5843   5.6884   5.9852
     6.0815   6.5196

          k = 0.1254-0.1927 0.0000 ( 31876 PWs)   bands (ev):

   -47.0359  -5.0692  -4.2476  -4.1479  -4.0888  -3.9135  -3.8696  -3.8239
    -3.7994  -3.7671  -3.6818  -3.5713  -3.4796  -3.3926  -3.3426  -3.2151
    -3.1981  -3.1497  -3.0881  -3.0719  -2.9876  -2.9520  -2.9085  -2.8093
    -2.7984  -2.7887  -2.7219  -2.7062  -2.6050  -2.5859  -2.5487  -2.5258
    -2.4270  -2.4026  -2.3794  -2.3520  -2.2985  -2.2559  -2.1995  -2.1644
    -2.1503  -2.0473  -2.0093  -1.9853  -1.9377  -1.8715  -1.8492  -1.7231
    -1.6752  -1.6247  -1.5619  -1.5137  -1.4512  -1.4218  -1.3790  -1.3365
    -1.3252  -1.2697  -1.2363  -1.1820  -1.1613  -1.0961  -1.0590  -0.4449
     0.7555   1.1215   1.6241   1.9203   2.4031   2.9980   3.5732   3.7452
     3.8511   4.5563   4.7836   4.9911   5.2863   5.5448   5.6470   5.8358
     6.2441   6.5871

          k = 0.2508-0.1284 0.0000 ( 31864 PWs)   bands (ev):

   -47.0359  -4.9254  -4.2311  -4.1208  -4.0795  -4.0358  -3.9679  -3.8954
    -3.8487  -3.8083  -3.6553  -3.6196  -3.5476  -3.3942  -3.3552  -3.2505
    -3.2159  -3.1600  -3.0967  -3.0677  -2.9816  -2.9431  -2.8955  -2.8022
    -2.7786  -2.7202  -2.6716  -2.6355  -2.6031  -2.5667  -2.5302  -2.4869
    -2.4136  -2.3822  -2.3358  -2.2975  -2.2489  -2.2021  -2.1688  -2.0987
    -2.0770  -2.0267  -1.9787  -1.9007  -1.8403  -1.8254  -1.7786  -1.7609
    -1.6754  -1.6457  -1.5651  -1.5315  -1.4778  -1.4353  -1.4011  -1.3677
    -1.2997  -1.2614  -1.2221  -1.1749  -1.1369  -1.1147  -1.0690  -0.3952
     0.6744   1.1967   1.8289   2.0776   2.4470   2.5627   2.8510   3.5123
     3.6668   4.0097   4.4000   4.9015   5.0500   5.3895   5.5384   5.6397
     5.7963   6.2423

          k = 0.2508 0.0001 0.0000 ( 31848 PWs)   bands (ev):

   -47.0359  -5.0220  -4.2608  -4.1245  -4.0736  -4.0347  -4.0099  -3.9655
    -3.8997  -3.7738  -3.6479  -3.5220  -3.4661  -3.4013  -3.3443  -3.2985
    -3.1839  -3.1653  -3.1432  -3.1040  -3.0528  -2.9293  -2.8586  -2.8313
    -2.7988  -2.7378  -2.6860  -2.6287  -2.6094  -2.5834  -2.5086  -2.4944
    -2.4096  -2.3584  -2.3224  -2.2618  -2.2394  -2.2129  -2.1631  -2.1039
    -2.0571  -1.9810  -1.9603  -1.9015  -1.8536  -1.8052  -1.7688  -1.7337
    -1.6766  -1.6322  -1.5726  -1.5604  -1.4806  -1.4132  -1.3862  -1.3618
    -1.3569  -1.2818  -1.2677  -1.2041  -1.1548  -1.0844  -1.0641  -0.4976
     1.0740   1.4122   1.5030   2.3689   2.6595   2.8627   3.0948   3.5772
     3.7752   3.9743   4.4670   4.6985   4.8571   5.2354   5.4711   5.5787
     5.7777   5.9986

          k = 0.2508 0.1286 0.0000 ( 31864 PWs)   bands (ev):

   -47.0359  -4.9244  -4.2272  -4.1250  -4.0999  -4.0214  -3.9594  -3.9165
    -3.8685  -3.7124  -3.6794  -3.6266  -3.5494  -3.4052  -3.3513  -3.3152
    -3.2148  -3.1899  -3.1151  -3.0732  -2.9848  -2.9529  -2.8692  -2.8246
    -2.7771  -2.7212  -2.6723  -2.6279  -2.5959  -2.5588  -2.5199  -2.4911
    -2.3951  -2.3862  -2.3305  -2.2748  -2.2515  -2.1930  -2.1768  -2.1597
    -2.0483  -1.9867  -1.9223  -1.8802  -1.8616  -1.8356  -1.7795  -1.7651
    -1.6661  -1.6120  -1.5906  -1.5320  -1.4901  -1.4286  -1.3824  -1.3633
    -1.3254  -1.2904  -1.2164  -1.1749  -1.1445  -1.1308  -1.0524  -0.4227
     0.6856   1.1960   1.9110   2.1179   2.4435   2.5146   2.9438   3.5511
     3.5846   3.8591   4.3894   4.8427   5.0379   5.2138   5.6748   5.8633
     6.0404   6.4046

          k = 0.2508 0.2571 0.0000 ( 31870 PWs)   bands (ev):

   -47.0359  -4.6528  -4.1634  -4.0914  -4.0579  -4.0004  -3.9142  -3.8798
    -3.8565  -3.8143  -3.6595  -3.6104  -3.5132  -3.4252  -3.3694  -3.3175
    -3.2394  -3.1875  -3.0828  -3.0339  -3.0004  -2.9559  -2.8964  -2.8491
    -2.8112  -2.7517  -2.7205  -2.6930  -2.6042  -2.5609  -2.4891  -2.4424
    -2.4078  -2.3721  -2.3426  -2.3122  -2.2246  -2.1919  -2.1664  -2.1243
    -2.0449  -1.9973  -1.9592  -1.9279  -1.8826  -1.8059  -1.7596  -1.7374
    -1.6729  -1.5940  -1.5305  -1.5032  -1.4644  -1.4094  -1.3586  -1.3446
    -1.3145  -1.2698  -1.2297  -1.2144  -1.1513  -1.1194  -1.0756  -0.1525
     0.2558   0.6031   1.3993   1.5982   1.7432   2.7733   3.0819   3.3130
     3.7173   3.8354   4.4478   4.7506   5.1231   5.2280   5.9088   6.0133
     6.3068   6.5554

          k = 0.2508-0.6425 0.0000 ( 31850 PWs)   bands (ev):

   -47.0359  -4.3050  -4.1255  -4.0620  -4.0203  -3.9806  -3.9438  -3.8569
    -3.7984  -3.7596  -3.6271  -3.5794  -3.4867  -3.4267  -3.3890  -3.2684
    -3.2290  -3.1860  -3.1310  -3.0844  -3.0448  -2.9782  -2.9199  -2.8747
    -2.8323  -2.8068  -2.7760  -2.6922  -2.6596  -2.6131  -2.5363  -2.4764
    -2.4294  -2.3867  -2.3281  -2.2888  -2.2504  -2.1783  -2.1345  -2.0802
    -2.0246  -1.9757  -1.9342  -1.8815  -1.7730  -1.7458  -1.7150  -1.6569
    -1.6228  -1.5956  -1.5673  -1.5042  -1.4834  -1.4323  -1.3828  -1.3362
    -1.2901  -1.2526  -1.2112  -1.1907  -1.1270  -1.1193  -1.0649  -0.4853
     0.0593   0.3626   0.4459   1.3890   2.0047   2.1153   2.9940   3.2039
     3.6482   4.0115   4.6635   4.9679   5.2606   5.5919   6.0175   6.2549
     6.4495   6.6541

          k = 0.2508-0.5140 0.0000 ( 31773 PWs)   bands (ev):

   -47.0358  -4.1814  -4.1593  -4.0201  -3.9515  -3.9111  -3.8728  -3.8480
    -3.8247  -3.7756  -3.6298  -3.4951  -3.4688  -3.4332  -3.3366  -3.3039
    -3.2756  -3.2285  -3.1868  -3.1514  -3.0441  -2.9902  -2.9724  -2.8844
    -2.8553  -2.7734  -2.7107  -2.6844  -2.6327  -2.6094  -2.5640  -2.4788
    -2.4232  -2.4036  -2.3652  -2.3283  -2.2695  -2.1863  -2.1590  -2.0897
    -2.0504  -1.9704  -1.8974  -1.7954  -1.7721  -1.6971  -1.6847  -1.6597
    -1.5953  -1.5667  -1.5036  -1.4743  -1.4614  -1.4073  -1.3738  -1.3264
    -1.2841  -1.2653  -1.2152  -1.1688  -1.1586  -1.1155  -1.0773  -0.6659
    -0.3794   0.0471   0.8825   1.1943   1.5054   2.5279   2.8581   3.0166
     3.6828   4.0605   4.3193   5.0934   5.4626   5.9794   6.2868   6.4627
     6.5739   6.8658

          k = 0.2508-0.3854 0.0000 ( 31842 PWs)   bands (ev):

   -47.0359  -4.3132  -4.1331  -4.0609  -4.0287  -3.9688  -3.9478  -3.8695
    -3.7990  -3.7056  -3.6387  -3.5708  -3.4837  -3.4065  -3.3560  -3.3038
    -3.2210  -3.1949  -3.1108  -3.0806  -3.0181  -2.9858  -2.9422  -2.9228
    -2.8676  -2.8583  -2.7145  -2.6597  -2.6243  -2.5727  -2.5238  -2.4926
    -2.4572  -2.3770  -2.3531  -2.3008  -2.2276  -2.2014  -2.1270  -2.0649
    -2.0455  -1.9955  -1.8973  -1.8447  -1.7929  -1.7639  -1.7353  -1.7014
    -1.6058  -1.5817  -1.5443  -1.4912  -1.4660  -1.4279  -1.3931  -1.3204
    -1.2979  -1.2591  -1.2300  -1.1790  -1.1628  -1.1020  -1.0737  -0.4969
     0.0379   0.3331   0.4521   1.3020   2.0341   2.1442   3.0241   3.2064
     3.6294   4.3013   4.4888   5.0652   5.2659   5.3807   5.7822   6.2434
     6.4517   6.6811

          k = 0.2508-0.2569 0.0000 ( 31875 PWs)   bands (ev):

   -47.0359  -4.6567  -4.1550  -4.1226  -4.0482  -3.9729  -3.9253  -3.8657
    -3.8613  -3.8293  -3.6880  -3.5817  -3.4707  -3.4139  -3.3510  -3.3246
    -3.2489  -3.1341  -3.1094  -3.0334  -3.0108  -2.9808  -2.8838  -2.8314
    -2.8082  -2.7510  -2.6654  -2.6499  -2.6092  -2.5822  -2.5290  -2.4780
    -2.4027  -2.3853  -2.3402  -2.3076  -2.2458  -2.2043  -2.1513  -2.0870
    -2.0550  -2.0393  -1.9739  -1.8973  -1.8732  -1.8189  -1.7758  -1.7149
    -1.6528  -1.5992  -1.5449  -1.5285  -1.4885  -1.4243  -1.3819  -1.3541
    -1.2854  -1.2702  -1.2161  -1.1850  -1.1582  -1.1312  -1.0546  -0.1094
     0.2133   0.5760   1.3010   1.5908   1.7611   2.7862   2.9365   3.4738
     3.6949   4.0860   4.4816   4.7262   5.1098   5.1977   5.6536   5.9315
     6.0673   6.3603

          k = 0.3762-0.1926 0.0000 ( 31840 PWs)   bands (ev):

   -47.0359  -4.4449  -4.2452  -4.1637  -4.0710  -4.0224  -3.9972  -3.8757
    -3.8089  -3.7674  -3.6611  -3.5968  -3.5487  -3.4636  -3.4176  -3.3703
    -3.2675  -3.1810  -3.0788  -3.0422  -3.0003  -2.9721  -2.8632  -2.8059
    -2.7859  -2.7268  -2.6845  -2.6251  -2.6019  -2.5555  -2.4867  -2.4584
    -2.4189  -2.3477  -2.2906  -2.2815  -2.2343  -2.2096  -2.1073  -2.0732
    -2.0059  -1.9691  -1.9186  -1.8587  -1.8333  -1.7880  -1.7525  -1.6892
    -1.6240  -1.5944  -1.5435  -1.4984  -1.4117  -1.3876  -1.3383  -1.3142
    -1.2467  -1.2342  -1.1965  -1.1691  -1.1305  -1.1030  -1.0811  -0.5816
     0.1277   0.5822   1.7309   1.8062   2.0893   2.2311   2.7081   2.9445
     3.2292   3.7917   4.2815   4.4011   4.8556   5.1431   5.4818   5.5977
     6.1731   6.4161

          k = 0.3762-0.0641 0.0000 ( 31882 PWs)   bands (ev):

   -47.0360  -4.5889  -4.2882  -4.1851  -4.1187  -4.0311  -3.9491  -3.8954
    -3.8572  -3.7855  -3.6536  -3.5267  -3.4823  -3.4356  -3.3472  -3.3263
    -3.2775  -3.2414  -3.1075  -3.0287  -2.9905  -2.9545  -2.9028  -2.8214
    -2.7761  -2.7557  -2.7105  -2.6621  -2.6325  -2.5757  -2.5318  -2.4647
    -2.4246  -2.3526  -2.3262  -2.2561  -2.2234  -2.1894  -2.1228  -2.1192
    -2.0389  -1.9504  -1.8883  -1.8386  -1.7947  -1.7751  -1.7106  -1.6615
    -1.6262  -1.5765  -1.5047  -1.4954  -1.4617  -1.3981  -1.3385  -1.3156
    -1.2718  -1.2536  -1.2269  -1.1907  -1.1431  -1.0942  -1.0708  -0.0864
     0.0337   0.9214   1.1565   1.5969   2.1453   2.7570   2.8354   3.2974
     3.4703   4.0306   4.3093   4.4300   4.9497   5.1543   5.3202   5.6456
     6.0046   6.1298

          k = 0.3762 0.0644 0.0000 ( 31884 PWs)   bands (ev):

   -47.0360  -4.5887  -4.2712  -4.2015  -4.1116  -4.0382  -3.9647  -3.8986
    -3.8573  -3.7324  -3.6516  -3.5697  -3.4577  -3.4379  -3.3701  -3.3319
    -3.2713  -3.2518  -3.1600  -3.0692  -2.9736  -2.9482  -2.8773  -2.8565
    -2.8041  -2.7235  -2.6987  -2.6594  -2.6161  -2.5747  -2.5402  -2.4492
    -2.3840  -2.3430  -2.3104  -2.2873  -2.2249  -2.1918  -2.1509  -2.0885
    -2.0631  -1.9313  -1.8864  -1.8386  -1.8039  -1.7375  -1.7079  -1.6500
    -1.6382  -1.5499  -1.5237  -1.4953  -1.4421  -1.3889  -1.3510  -1.3237
    -1.2973  -1.2725  -1.2196  -1.1835  -1.1604  -1.0911  -1.0724  -0.1208
     0.0785   0.9262   1.2366   1.5725   2.0817   2.7463   2.9102   3.3242
     3.4881   3.8054   4.2256   4.5757   4.8526   5.2581   5.4452   5.8734
     5.9877   6.2567

          k = 0.3762 0.1929 0.0000 ( 31850 PWs)   bands (ev):

   -47.0359  -4.4427  -4.2131  -4.1734  -4.0705  -4.0338  -4.0150  -3.8725
    -3.8210  -3.7121  -3.6466  -3.6128  -3.5888  -3.4758  -3.4158  -3.3454
    -3.2886  -3.2567  -3.1631  -3.0565  -3.0151  -2.9444  -2.8925  -2.8366
    -2.7714  -2.7304  -2.6498  -2.6238  -2.5634  -2.5082  -2.4754  -2.4477
    -2.4055  -2.3627  -2.3168  -2.2579  -2.2267  -2.1608  -2.1364  -2.0993
    -1.9789  -1.9416  -1.9272  -1.8873  -1.8538  -1.7510  -1.7224  -1.6946
    -1.6414  -1.5826  -1.5516  -1.4582  -1.4043  -1.3704  -1.3289  -1.3112
    -1.2774  -1.2472  -1.2212  -1.1834  -1.1379  -1.1175  -1.0856  -0.5464
     0.0747   0.7467   1.6798   1.8736   2.0237   2.3145   2.7073   3.0271
     3.1399   3.4752   4.1521   4.4481   4.9246   5.2986   5.7440   6.0288
     6.2436   6.5649

          k = 0.3762-0.7067 0.0000 ( 31862 PWs)   bands (ev):

   -47.0359  -4.2377  -4.2005  -4.1474  -4.0891  -4.0004  -3.9382  -3.8326
    -3.8176  -3.7152  -3.6449  -3.6016  -3.5504  -3.4907  -3.4479  -3.3612
    -3.2936  -3.2303  -3.1385  -3.0697  -3.0173  -2.9719  -2.9252  -2.8453
    -2.8065  -2.7890  -2.7275  -2.6627  -2.5753  -2.5381  -2.5119  -2.4649
    -2.4068  -2.3611  -2.2902  -2.2447  -2.2289  -2.1329  -2.0715  -2.0337
    -1.9750  -1.9446  -1.8983  -1.8788  -1.7933  -1.7515  -1.7197  -1.6757
    -1.6232  -1.5818  -1.5028  -1.4451  -1.4317  -1.3703  -1.3445  -1.3067
    -1.2825  -1.2419  -1.2064  -1.1803  -1.1416  -1.0986  -1.0152  -0.7455
     0.2061   0.4595   0.7889   1.4416   1.8995   2.1677   2.9812   3.2109
     3.3246   3.5055   4.1651   4.4696   4.9062   5.4096   5.8994   6.1728
     6.3194   6.5637

          k = 0.3762-0.5782 0.0000 ( 31805 PWs)   bands (ev):

   -47.0359  -4.2651  -4.2337  -4.0851  -4.0007  -3.9240  -3.8860  -3.8280
    -3.7152  -3.6728  -3.6153  -3.5761  -3.5105  -3.4470  -3.4033  -3.3627
    -3.3262  -3.2398  -3.2129  -3.1467  -3.1017  -2.9514  -2.9116  -2.8807
    -2.8098  -2.7973  -2.7674  -2.7076  -2.6272  -2.5857  -2.5182  -2.4615
    -2.3856  -2.3745  -2.3483  -2.2556  -2.2187  -2.1716  -2.1414  -2.0890
    -1.9998  -1.9337  -1.8609  -1.7866  -1.7427  -1.6937  -1.6628  -1.6274
    -1.5902  -1.5270  -1.4938  -1.4467  -1.3937  -1.3541  -1.3056  -1.2796
    -1.2636  -1.2369  -1.1962  -1.1574  -1.1361  -1.0867  -0.9005  -0.5245
    -0.4187   0.1665   0.4147   1.1728   1.8088   2.0958   2.5963   3.2237
     3.4655   3.8680   4.4433   4.7484   5.1634   5.6939   6.0762   6.2605
     6.5782   6.7243

          k = 0.3762-0.4497 0.0000 ( 31825 PWs)   bands (ev):

   -47.0359  -4.2681  -4.2374  -4.0760  -4.0036  -3.9499  -3.8826  -3.8217
    -3.7170  -3.6800  -3.6267  -3.5493  -3.4683  -3.4479  -3.3920  -3.3595
    -3.3406  -3.2494  -3.2197  -3.0940  -3.0347  -2.9800  -2.9439  -2.8883
    -2.8553  -2.8180  -2.7608  -2.7061  -2.6164  -2.5489  -2.5149  -2.4588
    -2.4326  -2.3701  -2.3138  -2.2560  -2.2340  -2.1858  -2.1446  -2.0579
    -2.0139  -1.9426  -1.8694  -1.7957  -1.7647  -1.6984  -1.6696  -1.5963
    -1.5626  -1.5354  -1.4926  -1.4476  -1.3986  -1.3618  -1.3217  -1.2708
    -1.2599  -1.2371  -1.1801  -1.1647  -1.1009  -1.0756  -0.9065  -0.5306
    -0.4438   0.0329   0.5085   1.1227   1.7343   2.2001   2.7636   3.0021
     3.5412   4.1289   4.3368   4.6491   5.0822   5.5356   6.0438   6.2891
     6.5034   6.7680

          k = 0.3762-0.3212 0.0000 ( 31851 PWs)   bands (ev):

   -47.0359  -4.2496  -4.2164  -4.1394  -4.0759  -4.0178  -3.9595  -3.8280
    -3.7691  -3.7115  -3.6917  -3.6161  -3.4937  -3.4904  -3.3972  -3.3664
    -3.2814  -3.1938  -3.0886  -3.0280  -3.0181  -2.9855  -2.9256  -2.8735
    -2.8591  -2.8135  -2.6771  -2.6179  -2.5911  -2.5423  -2.5008  -2.4850
[...]
    -3.8271  -3.7794  -3.7064  -3.6553  -3.6097  -3.4761  -3.4144  -3.4016
    -3.3387  -3.2990  -3.2860  -3.2295  -3.1578  -3.0772  -3.0232  -2.9869
    -2.9330  -2.8759  -2.8469  -2.7522  -2.7290  -2.6713  -2.6514  -2.6104
    -2.4996  -2.4011  -2.3745  -2.2944  -2.2393  -2.2035  -2.1442  -2.0967
    -2.0435  -1.9992  -1.9736  -1.9184  -1.8570  -1.8239  -1.7839  -1.7710
    -1.7353  -1.6883  -1.6433  -1.6356  -1.5751  -1.5334  -1.3792  -1.0413
    -0.9300  -0.3526  -0.1455   0.6666   1.3297   1.5679   2.5542   3.0845
     3.6072   4.3352   4.5375   5.1022   5.5784   6.1530   6.3071   6.5544
     6.9056   7.0461

          k = 0.3762-0.4497 0.0000 ( 31825 PWs)   bands (ev):

   -45.7368  -4.7507  -4.7088  -4.5518  -4.4919  -4.4363  -4.3560  -4.3165
    -4.2241  -4.1681  -4.1270  -4.0319  -3.9734  -3.9392  -3.8921  -3.8626
    -3.8371  -3.7724  -3.7104  -3.6357  -3.5348  -3.5007  -3.4516  -3.4222
    -3.3707  -3.3316  -3.2716  -3.2151  -3.1118  -3.0721  -3.0237  -2.9732
    -2.9229  -2.8804  -2.8279  -2.7883  -2.7372  -2.6832  -2.6456  -2.5739
    -2.5249  -2.4201  -2.3496  -2.3243  -2.2586  -2.2010  -2.1547  -2.0673
    -2.0144  -2.0020  -1.9748  -1.9256  -1.8836  -1.8357  -1.7984  -1.7406
    -1.7314  -1.6788  -1.6502  -1.6067  -1.5848  -1.5248  -1.3891  -1.0362
    -0.9513  -0.4946  -0.0499   0.6311   1.1848   1.6948   2.6689   2.9809
     3.6397   4.2721   4.5558   5.0900   5.6294   6.1555   6.2824   6.5657
     6.8724   7.0064

          k = 0.3762-0.3212 0.0000 ( 31851 PWs)   bands (ev):

   -45.7368  -4.7317  -4.6860  -4.6246  -4.5500  -4.5024  -4.4448  -4.3052
    -4.2554  -4.2289  -4.1831  -4.1031  -4.0174  -3.9856  -3.9172  -3.8621
    -3.8039  -3.7110  -3.6183  -3.5611  -3.5294  -3.4961  -3.4331  -3.3907
    -3.3752  -3.3099  -3.2052  -3.1161  -3.0836  -3.0403  -3.0045  -2.9874
    -2.9383  -2.8629  -2.8408  -2.7984  -2.6917  -2.6345  -2.5963  -2.5425
    -2.4973  -2.4264  -2.3778  -2.3351  -2.3113  -2.2461  -2.1656  -2.1392
    -2.1044  -2.0775  -2.0122  -1.9259  -1.9049  -1.8754  -1.8153  -1.7833
    -1.7560  -1.6950  -1.6659  -1.6521  -1.5845  -1.5211  -1.4549  -1.3295
    -0.3049  -0.0235   0.0992   0.8661   1.3731   2.1078   2.4764   2.8921
     3.2858   3.7655   4.0948   4.9009   5.2830   5.9901   6.1302   6.4671
     6.8553   7.0544

          k =-0.5016 0.2569 0.0000 ( 31850 PWs)   bands (ev):

   -45.7368  -4.7151  -4.6940  -4.6271  -4.5836  -4.5217  -4.4175  -4.3785
    -4.2551  -4.2231  -4.1352  -4.0803  -4.0603  -4.0394  -3.9911  -3.8542
    -3.7716  -3.7282  -3.7000  -3.5667  -3.5063  -3.4804  -3.3986  -3.3619
    -3.3577  -3.2473  -3.1619  -3.1430  -3.0626  -3.0229  -3.0068  -2.9505
    -2.9222  -2.8521  -2.8135  -2.7718  -2.6926  -2.6734  -2.5985  -2.5704
    -2.4663  -2.4381  -2.4098  -2.3610  -2.2766  -2.2535  -2.1822  -2.1385
    -2.0933  -2.0505  -1.9666  -1.8925  -1.8709  -1.8532  -1.8156  -1.7836
    -1.7287  -1.7086  -1.6679  -1.6391  -1.6222  -1.5684  -1.4976  -1.0500
    -0.9754   0.3292   0.6865   1.3391   1.3716   1.8357   2.2358   2.4432
     2.9544   3.5071   3.9677   4.8253   5.0677   5.9869   6.1321   6.7153
     6.7338   6.8834

          k =-0.5016 0.3854 0.0000 ( 31842 PWs)   bands (ev):

   -45.7368  -4.7790  -4.6851  -4.6452  -4.5987  -4.5418  -4.3904  -4.2895
    -4.2486  -4.2302  -4.1501  -4.1052  -4.0065  -3.9702  -3.9084  -3.8918
    -3.8238  -3.7088  -3.6665  -3.5677  -3.5128  -3.4798  -3.4338  -3.3912
    -3.3359  -3.3057  -3.2453  -3.1658  -3.1188  -3.0451  -3.0184  -2.9389
    -2.9284  -2.8428  -2.8158  -2.7848  -2.7249  -2.6654  -2.6175  -2.5823
    -2.4894  -2.4347  -2.3436  -2.3394  -2.3079  -2.2296  -2.1712  -2.1349
    -2.0374  -2.0174  -1.9843  -1.9350  -1.8603  -1.8232  -1.7716  -1.7375
    -1.7306  -1.6940  -1.6588  -1.6111  -1.5829  -1.5251  -1.4311  -1.2023
    -0.6135   0.0080   0.3229   0.9929   1.1160   2.2017   2.4869   2.7548
     3.1254   3.7121   4.0427   4.7979   5.2785   5.8975   6.3037   6.4407
     6.5771   6.7527

          k =-0.5016 0.5139 0.0000 ( 31845 PWs)   bands (ev):

   -45.7368  -4.7837  -4.7632  -4.6356  -4.5883  -4.5713  -4.3124  -4.2834
    -4.2606  -4.2152  -4.1398  -4.0260  -4.0095  -3.9655  -3.8905  -3.8558
    -3.8089  -3.7299  -3.6731  -3.6484  -3.5619  -3.5223  -3.4093  -3.3746
    -3.3605  -3.2819  -3.2459  -3.1952  -3.1320  -3.0938  -3.0449  -2.9741
    -2.9430  -2.8563  -2.8326  -2.7804  -2.7407  -2.6717  -2.6239  -2.6067
    -2.5301  -2.4402  -2.3560  -2.3091  -2.2794  -2.2173  -2.1400  -2.0813
    -2.0242  -1.9630  -1.9221  -1.8911  -1.8645  -1.8360  -1.7981  -1.7336
    -1.7092  -1.6778  -1.6650  -1.6313  -1.5797  -1.5409  -1.2710  -0.8462
    -0.7940  -0.0932   0.1149   0.3800   1.6408   1.8478   2.1820   3.3013
     3.7201   4.1464   4.3662   4.6541   5.0577   5.6459   5.9617   6.2307
     6.4831   6.6459

          k =-0.5016 0.6424 0.0000 ( 31851 PWs)   bands (ev):

   -45.7368  -4.7745  -4.6801  -4.6523  -4.6009  -4.5313  -4.3882  -4.2903
    -4.2556  -4.1936  -4.1655  -4.0899  -4.0508  -3.9970  -3.9293  -3.8587
    -3.8346  -3.7702  -3.6892  -3.6274  -3.5325  -3.4846  -3.4300  -3.3597
    -3.3285  -3.2933  -3.2543  -3.1575  -3.0933  -3.0591  -2.9846  -2.9375
    -2.9248  -2.8913  -2.8332  -2.7741  -2.7116  -2.6601  -2.5963  -2.5629
    -2.5164  -2.4370  -2.3959  -2.2951  -2.2630  -2.1989  -2.1567  -2.0972
    -2.0668  -2.0156  -1.9849  -1.9190  -1.8682  -1.8280  -1.8022  -1.7590
    -1.7283  -1.7023  -1.6578  -1.6139  -1.5765  -1.5477  -1.4332  -1.1646
    -0.5918   0.1236   0.3116   0.9873   1.2196   2.0616   2.5830   2.8125
     2.9880   3.7005   4.1819   4.7569   5.2295   5.9344   6.1452   6.4205
     6.6166   6.7971

          k =-0.5016-0.2572 0.0000 ( 31840 PWs)   bands (ev):

   -45.7368  -4.7197  -4.6750  -4.6334  -4.5621  -4.5195  -4.4504  -4.3744
    -4.2307  -4.2188  -4.1544  -4.0985  -4.0633  -3.9978  -3.9949  -3.8699
    -3.8394  -3.8298  -3.7229  -3.6057  -3.5331  -3.4925  -3.3886  -3.3689
    -3.3071  -3.2405  -3.1802  -3.1519  -3.0762  -3.0282  -2.9719  -2.9359
    -2.8744  -2.8598  -2.8397  -2.7726  -2.6585  -2.6517  -2.5931  -2.5613
    -2.4694  -2.4462  -2.4159  -2.3825  -2.2976  -2.2198  -2.1541  -2.1238
    -2.0574  -2.0475  -1.9552  -1.9269  -1.9053  -1.8539  -1.7933  -1.7652
    -1.7263  -1.7057  -1.6791  -1.6507  -1.6139  -1.5591  -1.5293  -1.0845
    -0.8752   0.4250   0.7627   1.3637   1.3925   1.9543   2.1676   2.4547
     2.7529   3.4898   4.1914   4.6300   5.1113   5.8893   6.2735   6.5578
     6.7332   6.9401

     the Fermi energy is     1.3497 ev

!    total energy              =   -1026.27321635 Ry
     estimated scf accuracy    <          3.0E-09 Ry
     smearing contrib. (-TS)   =      -0.00112568 Ry
     internal energy E=F+TS    =   -1026.27209067 Ry

     The total energy is F=E-TS. E is the sum of the following terms:
     one-electron contribution =  -10695.25468026 Ry
     hartree contribution      =    5438.67438724 Ry
     xc contribution           =    -271.45213536 Ry
     ewald contribution        =    4502.07338465 Ry
     DFT-D3 Dispersion         =      -0.31304694 Ry

     convergence has been achieved in   7 iterations

     negative rho (up, down):  4.292E-05 0.000E+00

     Forces acting on atoms (cartesian axes, Ry/au):

     atom    1 type  2   force =     0.00012363    0.00006759    0.00066774
     atom    2 type  2   force =    -0.00011876    0.00038617    0.00045191
     atom    3 type  2   force =     0.00011025   -0.00023697    0.00000801
     atom    4 type  2   force =     0.00068768    0.00080378    0.00025601
     atom    5 type  2   force =    -0.00033864   -0.00018048   -0.00053141
     atom    6 type  2   force =     0.00085094    0.00039213   -0.00058766
     atom    7 type  2   force =     0.00018733   -0.00012042    0.00002902
     atom    8 type  2   force =    -0.00007000    0.00030761   -0.00081816
     atom    9 type  2   force =    -0.00064576   -0.00053477   -0.00043217
     atom   10 type  2   force =    -0.00087648   -0.00069230    0.00045125
     atom   11 type  2   force =     0.00007719   -0.00047442   -0.00048114
     atom   12 type  2   force =    -0.00012431    0.00002174    0.00090901
     atom   13 type  1   force =     0.00013691    0.00026036    0.00007760
     The non-local contrib.  to forces
     atom    1 type  2   force =     0.00625872   -0.00111249    0.08815548
     atom    2 type  2   force =     0.02120332    0.00754304    0.02116593
     atom    3 type  2   force =    -0.00611368    0.00445502    0.00110444
     atom    4 type  2   force =     0.01436135    0.01202327    0.00112613
     atom    5 type  2   force =    -0.00449986   -0.00057275    0.02262757
     atom    6 type  2   force =     0.00416519   -0.00010598    0.01158753
     atom    7 type  2   force =    -0.00273634   -0.00251886   -0.01154510
     atom    8 type  2   force =     0.00863613    0.00957882   -0.01639906
     atom    9 type  2   force =    -0.01104092   -0.01225954   -0.00580403
     atom   10 type  2   force =     0.00992096   -0.01210331   -0.01396458
     atom   11 type  2   force =    -0.02186116   -0.00250525   -0.08164737
     atom   12 type  2   force =    -0.02205316    0.00309786   -0.16664596
     atom   13 type  1   force =     0.00136256   -0.00046715    0.06045078
     The ionic contribution  to forces
     atom    1 type  2   force =     8.88859537    0.21032805  114.48396125
     atom    2 type  2   force =     8.64961443    0.68088717  100.51764609
     atom    3 type  2   force =     6.01999956    0.78237515   81.22497076
     atom    4 type  2   force =     4.30024435   -0.30846466   56.41724039
     atom    5 type  2   force =     2.45979593    0.23350757   30.83710984
     atom    6 type  2   force =     0.62279417    0.06858198    8.22387326
     atom    7 type  2   force =    -1.06337756   -0.13436630  -14.01945895
     atom    8 type  2   force =    -3.02532610   -0.24670908  -36.86940013
     atom    9 type  2   force =    -4.87195275    0.64822569  -64.18783029
     atom   10 type  2   force =    -6.33933762   -1.39252205  -87.20170117
     atom   11 type  2   force =    -8.95124328   -0.47832863 -105.02295890
     atom   12 type  2   force =    -9.32713032   -0.19594245 -118.23565998
     atom   13 type  1   force =     2.63732382    0.13242757   33.83220784
     The local contribution  to forces
     atom    1 type  2   force =    -8.89409147   -0.20897491 -114.56087699
     atom    2 type  2   force =    -8.67069366   -0.68789558 -100.53114716
     atom    3 type  2   force =    -6.01250732   -0.78835699  -81.22133271
     atom    4 type  2   force =    -4.31348851    0.29856475  -56.41440631
     atom    5 type  2   force =    -2.45522299   -0.23322999  -30.85613851
     atom    6 type  2   force =    -0.62631150   -0.06803812   -8.23482895
     atom    7 type  2   force =     1.06643104    0.13682198   14.02846134
     atom    8 type  2   force =     3.01603830    0.23749857   36.88022242
     atom    9 type  2   force =     4.88193298   -0.63729619   64.18777823
     atom   10 type  2   force =     6.32728514    1.40415580   87.20875650
     atom   11 type  2   force =     8.97276387    0.48039368  105.09357669
     atom   12 type  2   force =     9.34807568    0.19275008  118.39091211
     atom   13 type  1   force =    -2.63850095   -0.13149594  -33.89031670
     The core correction contribution to forces
     atom    1 type  2   force =     0.00000476    0.00002412   -0.00585922
     atom    2 type  2   force =    -0.00070559   -0.00070067   -0.00313266
     atom    3 type  2   force =    -0.00025572    0.00081636   -0.00092289
     atom    4 type  2   force =    -0.00009343   -0.00044961    0.00038718
     atom    5 type  2   force =     0.00007314    0.00015912   -0.00023897
     atom    6 type  2   force =     0.00022402   -0.00011294   -0.00023145
     atom    7 type  2   force =    -0.00018671    0.00009780    0.00053481
     atom    8 type  2   force =     0.00004812   -0.00014560    0.00017146
     atom    9 type  2   force =     0.00010861   -0.00028897    0.00157716
     atom   10 type  2   force =    -0.00005717    0.00070296    0.00329019
     atom   11 type  2   force =     0.00098991    0.00019532    0.00602264
     atom   12 type  2   force =     0.00054121   -0.00020635    0.00746654
     atom   13 type  1   force =     0.00000000    0.00000000    0.00000000
     The Hubbard contrib.    to forces
     atom    1 type  2   force =     0.00000000    0.00000000    0.00000000
     atom    2 type  2   force =     0.00000000    0.00000000    0.00000000
     atom    3 type  2   force =     0.00000000    0.00000000    0.00000000
     atom    4 type  2   force =     0.00000000    0.00000000    0.00000000
     atom    5 type  2   force =     0.00000000    0.00000000    0.00000000
     atom    6 type  2   force =     0.00000000    0.00000000    0.00000000
     atom    7 type  2   force =     0.00000000    0.00000000    0.00000000
     atom    8 type  2   force =     0.00000000    0.00000000    0.00000000
     atom    9 type  2   force =     0.00000000    0.00000000    0.00000000
     atom   10 type  2   force =     0.00000000    0.00000000    0.00000000
     atom   11 type  2   force =     0.00000000    0.00000000    0.00000000
     atom   12 type  2   force =     0.00000000    0.00000000    0.00000000
     atom   13 type  1   force =     0.00000000    0.00000000    0.00000000
     The SCF correction term to forces
     atom    1 type  2   force =     0.00001628   -0.00001289    0.00000251
     atom    2 type  2   force =     0.00002251   -0.00000190    0.00004635
     atom    3 type  2   force =    -0.00000238   -0.00001481    0.00001800
     atom    4 type  2   force =     0.00001195   -0.00000828    0.00000601
     atom    5 type  2   force =    -0.00002825   -0.00000440    0.00003636
     atom    6 type  2   force =    -0.00001922   -0.00001507   -0.00000525
     atom    7 type  2   force =     0.00001364    0.00001623   -0.00001610
     atom    8 type  2   force =     0.00002531    0.00003936   -0.00000428
     atom    9 type  2   force =    -0.00001591   -0.00002596   -0.00002284
     atom   10 type  2   force =     0.00001162    0.00003545   -0.00002045
     atom   11 type  2   force =    -0.00000956   -0.00002233   -0.00001638
     atom   12 type  2   force =    -0.00003303   -0.00006963   -0.00000340
     atom   13 type  1   force =    -0.00000784    0.00000011    0.00000437

     DFT-D3 dispersion contribution to forces:
     atom    1 type  2   force =    -0.00066079   -0.00018759   -0.00471826
     atom    2 type  2   force =     0.00043945    0.00055083   -0.00412960
     atom    3 type  2   force =    -0.00101099    0.00048502   -0.00383255
     atom    4 type  2   force =    -0.00034881   -0.00086498   -0.00410037
     atom    5 type  2   force =    -0.00045738   -0.00004332   -0.00393067
     atom    6 type  2   force =    -0.00000249    0.00007897   -0.00098576
     atom    7 type  2   force =     0.00004249   -0.00017457    0.00205005
     atom    8 type  2   force =     0.00050748    0.00004225    0.00458846
     atom    9 type  2   force =     0.00032145    0.00110691    0.00386662
     atom   10 type  2   force =     0.00129982   -0.00096444    0.00408779
     atom   11 type  2   force =    -0.00056334   -0.00021049    0.00453921
     atom   12 type  2   force =     0.00047455    0.00038894    0.00483674
     atom   13 type  1   force =    -0.00004144   -0.00020753   -0.00227165

     Total force =     0.002880     Total SCF correction =     0.000140


     Computing stress (Cartesian axis) and pressure


     negative rho (up, down):  4.292E-05 0.000E+00
          total   stress  (Ry/bohr**3)                   (kbar)     P=      -11.50
  -0.00010475   0.00000361   0.00000728          -15.41        0.53        1.07
   0.00000361  -0.00008801   0.00000288            0.53      -12.95        0.42
   0.00000728   0.00000288  -0.00004184            1.07        0.42       -6.16

     Energy error            =      2.9E-05 Ry
     Gradient error          =      9.1E-04 Ry/Bohr

     bfgs converged in  38 scf cycles and  37 bfgs steps
     (criteria: energy <  1.0E-04 Ry, force <  1.0E-03 Ry/Bohr)

     End of BFGS Geometry Optimization

     Final energy             =   -1026.2732163492 Ry

     File ./Ag_mp-10597_111_hollow_1/Ag_mp-10597_111_hollow_1.bfgs deleted, as requested
Begin final coordinates

ATOMIC_POSITIONS (angstrom)
Ag            5.7014673950        2.5144536234       17.1751916925
Ag            2.2927055982        0.2622757475       16.8634516711
Ag            3.0931687435        2.9097612470       16.1404423081
Ag            4.7105480668        0.6395901979       15.2622140442
Ag            5.5030267622        3.3506194517       14.4607769132
Ag            2.1001035953        1.0919474308       14.0576441581
Ag            2.8792887988        3.7475230249       13.3245286916
Ag            4.5291593029        1.5086196701       12.5136444366
Ag            5.3103573724        4.2183522628       11.6796141930
Ag            1.8955475040        1.9299494563       11.2439156667
Ag            2.6719367141        4.6048964872       10.5648162659
Ag            4.3101969220        2.3521715206        9.8271518522
Li            7.4273709595        4.7543481359       17.6726429826
End final coordinates



     Writing all to output data dir ./Ag_mp-10597_111_hollow_1/Ag_mp-10597_111_hollow_1.save/

     init_run     :      3.34s CPU      3.95s WALL (       1 calls)
     electrons    :    539.54s CPU    588.71s WALL (      38 calls)
     update_pot   :     28.78s CPU     29.54s WALL (      37 calls)
     forces       :     24.52s CPU     26.28s WALL (      38 calls)
     force_dftd3  :      0.32s CPU      0.59s WALL (      38 calls)
     stress       :    119.84s CPU    121.84s WALL (      38 calls)
     stres_dftd3  :      0.31s CPU      0.51s WALL (      38 calls)

     Called by init_run:
     wfcinit      :      0.67s CPU      1.00s WALL (       1 calls)
     potinit      :      0.86s CPU      0.87s WALL (       1 calls)
     hinit0       :      1.61s CPU      1.82s WALL (       1 calls)

     Called by electrons:
     c_bands      :    478.37s CPU    516.48s WALL (     303 calls)
     sum_band     :     50.07s CPU     54.17s WALL (     303 calls)
     v_of_rho     :      5.01s CPU      6.46s WALL (     320 calls)
     newd         :      4.46s CPU      4.60s WALL (     320 calls)
     mix_rho      :      0.57s CPU      0.58s WALL (     303 calls)
     energy_dftd3 :      0.07s CPU      0.07s WALL (      38 calls)

     Called by c_bands:
     init_us_2    :      2.27s CPU      2.44s WALL (    6147 calls)
     init_us_2:cp :      2.25s CPU      2.43s WALL (    6147 calls)
     cegterg      :    453.55s CPU    475.79s WALL (    2727 calls)

     Called by *egterg:
     cdiaghg      :    119.32s CPU    120.19s WALL (   13311 calls)
     h_psi        :    246.95s CPU    262.67s WALL (   13842 calls)
     s_psi        :     18.01s CPU     18.20s WALL (   13842 calls)
     g_psi        :      0.89s CPU      0.90s WALL (   11106 calls)

     Called by h_psi:
     h_psi:calbec :     30.45s CPU     34.41s WALL (   13842 calls)
     vloc_psi     :    196.28s CPU    207.75s WALL (   13842 calls)
     add_vuspsi   :     19.04s CPU     19.30s WALL (   13842 calls)

     General routines
     calbec       :     44.00s CPU     49.50s WALL (   18279 calls)
     fft          :      7.68s CPU      9.76s WALL (    5092 calls)
     ffts         :      0.78s CPU      1.28s WALL (     623 calls)
     fftw         :    206.06s CPU    217.89s WALL ( 1547722 calls)
     interpolate  :      0.90s CPU      1.25s WALL (     320 calls)

     Parallel routines

     PWSCF        :  11m57.89s CPU  12m54.21s WALL


   This run was terminated on:  11:39:33  25Jul2025            

=------------------------------------------------------------------------------=
   JOB DONE.
=------------------------------------------------------------------------------=
