
     Program PWSCF v.7.2 starts on 24Jul2025 at  6:55:48 

     This program is part of the open-source Quantum ESPRESSO suite
     for quantum simulation of materials; please cite
         "P. Giannozzi et al., J. Phys.:Condens. Matter 21 395502 (2009);
         "P. Giannozzi et al., J. Phys.:Condens. Matter 29 465901 (2017);
         "P. Giannozzi et al., J. Chem. Phys. 152 154105 (2020);
          URL http://www.quantum-espresso.org", 
     in publications or presentations arising from this work. More details at
     http://www.quantum-espresso.org/quote

     Parallel version (MPI & OpenMP), running on     128 processor cores
     Number of MPI processes:               128
     Threads/MPI process:                     1

     MPI processes distributed on     2 nodes
     240868 MiB available memory on the printing compute node when the environment starts

     Reading input from Ag_mp-10597_111.in

     Current dimensions of program PWSCF are:
     Max number of different atomic species (ntypx) = 10
     Max number of k-points (npk) =  40000
     Max angular momentum in pseudopotentials (lmaxx) =  4
     Message from routine iosys:
     restart disabled: needed files not found

     K-points division:     npool     =       4
     R & G space division:  proc/nbgrp/npool/nimage =      32
     Subspace diagonalization in iterative solution of the eigenvalue problem:
     a serial algorithm will be used


     Parallelization info
     --------------------
     sticks:   dense  smooth     PW     G-vecs:    dense   smooth      PW
     Min         110      48     14                27268     7953    1223
     Max         111      49     15                27293     7978    1235
     Sum        3537    1553    451               872941   254887   39265

     Using Slab Decomposition



     bravais-lattice index     =            0
     lattice parameter (alat)  =       9.5650  a.u.
     unit-cell volume          =    4624.4342 (a.u.)^3
     number of atoms/cell      =           12
     number of atomic types    =            1
     number of electrons       =       132.00
     number of Kohn-Sham states=           79
     kinetic-energy cutoff     =      55.0000  Ry
     charge density cutoff     =     500.0000  Ry
     scf convergence threshold =      1.0E-06
     mixing beta               =       0.3000
     number of iterations used =            8  plain     mixing
     energy convergence thresh.=      1.0E-04
     force convergence thresh. =      1.0E-03
     Exchange-correlation= PBE
                           (   1   4   3   4   0   0   0)
     nstep                     =          500


     celldm(1)=   9.564982  celldm(2)=   0.000000  celldm(3)=   0.000000
     celldm(4)=   0.000000  celldm(5)=   0.000000  celldm(6)=   0.000000

     crystal axes: (cart. coord. in units of alat)
               a(1) = (   0.996905   0.000000  -0.078615 )  
               a(2) = (   0.498151   0.972709  -0.043130 )  
               a(3) = (   0.000000   0.000000   5.449661 )  

     reciprocal axes: (cart. coord. in units 2 pi/alat)
               b(1) = (  1.003105 -0.513718  0.000000 )  
               b(2) = ( -0.000000  1.028057  0.000000 )  
               b(3) = (  0.014470  0.000726  0.183498 )  


     PseudoPot. # 1 for Ag read from file:
     /home/ecastro/trabajo_final/pseudos/Ag.pbe-n-rrkjus_psl.1.0.0.UPF
     MD5 check sum: 81cdf87bacf708300839c66ee23ce017
     Pseudo is Ultrasoft + core correction, Zval = 11.0
     Generated using &quot;atomic&quot; code by A. Dal Corso  v.6.2.2
     Using radial grid of 1237 points,  6 beta functions with: 
                l(1) =   0
                l(2) =   0
                l(3) =   1
                l(4) =   1
                l(5) =   2
                l(6) =   2
     Q(r) pseudized with 0 coefficients 


     atomic species   valence    mass     pseudopotential
        Ag            11.00   107.86820     Ag( 1.00)

     No symmetry found



   Cartesian axes

     site n.     atom                  positions (alat units)
         1           Ag  tau(   1) = (   1.1394241   0.4969273   3.3934632  )
         2           Ag  tau(   2) = (   0.4641224   0.0528646   3.3102087  )
         3           Ag  tau(   3) = (   0.6192735   0.5815107   3.1576194  )
         4           Ag  tau(   4) = (   0.9408769   0.1374480   2.9957502  )
         5           Ag  tau(   5) = (   1.0960280   0.6660941   2.8431608  )
         6           Ag  tau(   6) = (   0.4207263   0.2220314   2.7599063  )
         7           Ag  tau(   7) = (   0.5758774   0.7506774   2.6073170  )
         8           Ag  tau(   8) = (   0.8974807   0.3066147   2.4454478  )
         9           Ag  tau(   9) = (   1.0526318   0.8352608   2.2928585  )
        10           Ag  tau(  10) = (   0.3773301   0.3911981   2.2096039  )
        11           Ag  tau(  11) = (   0.5324812   0.9198442   2.0570146  )
        12           Ag  tau(  12) = (   0.8540846   0.4757815   1.8951454  )

     --------------------------------------------
     DFT-D3 Dispersion Correction (no 3-body):
     --------------------------------------------
       Reference C6 values for interpolation: 

         atom   Coordination number   C6
         Ag         0.000           853.49
         Ag         0.968           537.23

       Values used:

         atom   Coordination number  R0_AB[au]  C6      C8
         Ag         4.319            3.147    537.23  47741.54
         Ag         5.783            3.147    537.23  47741.54
         Ag         7.164            3.147    537.23  47741.54
         Ag         7.907            3.147    537.23  47741.54
         Ag         8.597            3.147    537.23  47741.54
         Ag         8.615            3.147    537.23  47741.54
         Ag         8.615            3.147    537.23  47741.54
         Ag         8.597            3.147    537.23  47741.54
         Ag         7.907            3.147    537.23  47741.54
         Ag         7.164            3.147    537.23  47741.54
         Ag         5.783            3.147    537.23  47741.54
         Ag         4.319            3.147    537.23  47741.54

         Molecular C6 ( Ry / a.u.^6 ) =     77360.54


     number of k points=    34  Methfessel-Paxton smearing, width (Ry)=  0.0300
                       cart. coord. in units 2pi/alat
        k(    1) = (   0.0000000   0.0000000   0.0000000), wk =   0.0312500
        k(    2) = (   0.0000000   0.1285071   0.0000000), wk =   0.0625000
        k(    3) = (   0.0000000   0.2570142   0.0000000), wk =   0.0625000
        k(    4) = (   0.0000000   0.3855213   0.0000000), wk =   0.0625000
        k(    5) = (   0.0000000  -0.5140284   0.0000000), wk =   0.0312500
        k(    6) = (   0.1253881  -0.0642147   0.0000000), wk =   0.0625000
        k(    7) = (   0.1253881   0.0642924   0.0000000), wk =   0.0625000
        k(    8) = (   0.1253881   0.1927995   0.0000000), wk =   0.0625000
        k(    9) = (   0.1253881   0.3213066   0.0000000), wk =   0.0625000
        k(   10) = (   0.1253881  -0.5782431   0.0000000), wk =   0.0625000
        k(   11) = (   0.1253881  -0.4497360   0.0000000), wk =   0.0625000
        k(   12) = (   0.1253881  -0.3212289   0.0000000), wk =   0.0625000
        k(   13) = (   0.1253881  -0.1927218   0.0000000), wk =   0.0625000
        k(   14) = (   0.2507761  -0.1284294   0.0000000), wk =   0.0625000
        k(   15) = (   0.2507761   0.0000777   0.0000000), wk =   0.0625000
        k(   16) = (   0.2507761   0.1285848   0.0000000), wk =   0.0625000
        k(   17) = (   0.2507761   0.2570919   0.0000000), wk =   0.0625000
        k(   18) = (   0.2507761  -0.6424578   0.0000000), wk =   0.0625000
        k(   19) = (   0.2507761  -0.5139507   0.0000000), wk =   0.0625000
        k(   20) = (   0.2507761  -0.3854436   0.0000000), wk =   0.0625000
        k(   21) = (   0.2507761  -0.2569365   0.0000000), wk =   0.0625000
        k(   22) = (   0.3761642  -0.1926441   0.0000000), wk =   0.0625000
        k(   23) = (   0.3761642  -0.0641370   0.0000000), wk =   0.0625000
        k(   24) = (   0.3761642   0.0643701   0.0000000), wk =   0.0625000
        k(   25) = (   0.3761642   0.1928772   0.0000000), wk =   0.0625000
        k(   26) = (   0.3761642  -0.7066725   0.0000000), wk =   0.0625000
        k(   27) = (   0.3761642  -0.5781654   0.0000000), wk =   0.0625000
        k(   28) = (   0.3761642  -0.4496583   0.0000000), wk =   0.0625000
        k(   29) = (   0.3761642  -0.3211512   0.0000000), wk =   0.0625000
        k(   30) = (  -0.5015523   0.2568588   0.0000000), wk =   0.0312500
        k(   31) = (  -0.5015523   0.3853659   0.0000000), wk =   0.0625000
        k(   32) = (  -0.5015523   0.5138730   0.0000000), wk =   0.0625000
        k(   33) = (  -0.5015523   0.6423801   0.0000000), wk =   0.0625000
        k(   34) = (  -0.5015523  -0.2571697   0.0000000), wk =   0.0312500

     Dense  grid:   872941 G-vectors     FFT dimensions: (  72,  75, 375)

     Smooth grid:   254887 G-vectors     FFT dimensions: (  45,  50, 250)

     Estimated max dynamical RAM per process >      55.85 MB

     Estimated total dynamical RAM >       6.36 GB
     Cannot read rho : file not found

     Initial potential from superposition of free atoms

     starting charge     131.9952, renormalised to     132.0000

     negative rho (up, down):  1.204E-04 0.000E+00
     Message from routine qexsd_readschema :
     xml data file ./Ag_111/Ag_111.save/data-file-schema.xml not found
     Cannot read wfcs: file not found
     Starting wfcs are  108 randomized atomic wfcs

     total cpu time spent up to now is        8.2 secs

     per-process dynamical memory:   196.8 Mb

     Self-consistent Calculation

     iteration #  1     ecut=    55.00 Ry     beta= 0.30
     Davidson diagonalization with overlap
     c_bands:  1 eigenvalues not converged
     c_bands:  2 eigenvalues not converged
     c_bands:  2 eigenvalues not converged
     c_bands:  2 eigenvalues not converged
     c_bands:  1 eigenvalues not converged
     c_bands:  1 eigenvalues not converged
     c_bands:  1 eigenvalues not converged
     c_bands:  1 eigenvalues not converged
     ethr =  1.00E-05,  avg # of iterations = 19.8

     negative rho (up, down):  9.966E-05 0.000E+00

     total cpu time spent up to now is       20.4 secs

     total energy              =   -1011.25703562 Ry
     estimated scf accuracy    <       0.30146165 Ry

     iteration #  2     ecut=    55.00 Ry     beta= 0.30
     Davidson diagonalization with overlap
     ethr =  2.28E-04,  avg # of iterations = 11.9

     negative rho (up, down):  8.440E-05 0.000E+00

     total cpu time spent up to now is       24.9 secs

     total energy              =   -1011.27906748 Ry
     estimated scf accuracy    <       0.45698943 Ry

     iteration #  3     ecut=    55.00 Ry     beta= 0.30
     Davidson diagonalization with overlap
     ethr =  2.28E-04,  avg # of iterations =  2.2

     negative rho (up, down):  6.233E-05 0.000E+00

     total cpu time spent up to now is       27.5 secs

     total energy              =   -1011.33551267 Ry
     estimated scf accuracy    <       0.01589609 Ry

     iteration #  4     ecut=    55.00 Ry     beta= 0.30
     Davidson diagonalization with overlap
     ethr =  1.20E-05,  avg # of iterations = 10.4

     negative rho (up, down):  5.558E-05 0.000E+00

     total cpu time spent up to now is       31.6 secs

     total energy              =   -1011.33770990 Ry
     estimated scf accuracy    <       0.00158709 Ry

     iteration #  5     ecut=    55.00 Ry     beta= 0.30
     Davidson diagonalization with overlap
     ethr =  1.20E-06,  avg # of iterations =  3.9

     negative rho (up, down):  5.746E-05 0.000E+00

     total cpu time spent up to now is       34.4 secs

     total energy              =   -1011.33794257 Ry
     estimated scf accuracy    <       0.00030335 Ry

     iteration #  6     ecut=    55.00 Ry     beta= 0.30
     Davidson diagonalization with overlap
     ethr =  2.30E-07,  avg # of iterations =  4.5

     negative rho (up, down):  5.090E-05 0.000E+00

     total cpu time spent up to now is       37.2 secs

     total energy              =   -1011.33795716 Ry
     estimated scf accuracy    <       0.00038192 Ry

     iteration #  7     ecut=    55.00 Ry     beta= 0.30
     Davidson diagonalization with overlap
     ethr =  2.30E-07,  avg # of iterations =  2.1

     negative rho (up, down):  4.799E-05 0.000E+00

     total cpu time spent up to now is       39.4 secs

     total energy              =   -1011.33798701 Ry
     estimated scf accuracy    <       0.00004458 Ry

     iteration #  8     ecut=    55.00 Ry     beta= 0.30
     Davidson diagonalization with overlap
     ethr =  3.38E-08,  avg # of iterations =  2.8

     negative rho (up, down):  4.635E-05 0.000E+00

     total cpu time spent up to now is       41.5 secs

     total energy              =   -1011.33799262 Ry
     estimated scf accuracy    <       0.00000452 Ry

     iteration #  9     ecut=    55.00 Ry     beta= 0.30
     Davidson diagonalization with overlap
     ethr =  3.43E-09,  avg # of iterations =  4.7

     negative rho (up, down):  4.227E-05 0.000E+00

     total cpu time spent up to now is       43.9 secs

     End of self-consistent calculation

          k = 0.0000 0.0000 0.0000 ( 31927 PWs)   bands (ev):

    -6.2133  -5.0910  -5.0273  -4.9436  -4.9037  -4.5975  -4.5200  -4.5052
    -4.4788  -4.4019  -4.3874  -4.3758  -4.2762  -4.2112  -4.1688  -4.1578
    -3.8550  -3.8315  -3.7816  -3.7343  -3.7020  -3.6569  -3.6058  -3.5835
    -3.4998  -3.4908  -3.4618  -3.4304  -3.4035  -3.3384  -3.2606  -3.2174
    -3.2068  -3.1845  -3.1529  -3.1320  -3.0172  -2.9783  -2.9720  -2.9545
    -2.9321  -2.7964  -2.7596  -2.7570  -2.6696  -2.6586  -2.5477  -2.5132
    -2.4420  -2.4221  -2.3048  -2.2024  -2.2000  -2.1815  -2.1252  -2.1050
    -2.0611  -2.0543  -2.0290  -2.0183  -1.9717  -1.9558  -1.2669   0.5812
     1.3761   2.3558   2.4224   2.5796   2.6557   3.4932   4.0183   4.0532
     4.4416   4.6922   4.9441   5.2920   5.4583   5.6028   5.6272

          k = 0.0000 0.1285 0.0000 ( 31864 PWs)   bands (ev):

    -6.1056  -5.0876  -5.0323  -4.9371  -4.7519  -4.6011  -4.5785  -4.5563
    -4.4818  -4.4677  -4.4070  -4.3002  -4.1696  -4.1546  -4.1191  -4.1017
    -3.9260  -3.8479  -3.7889  -3.7370  -3.7014  -3.6628  -3.6280  -3.6110
    -3.5632  -3.5383  -3.4698  -3.4486  -3.3690  -3.3329  -3.2996  -3.2518
    -3.2409  -3.2015  -3.1592  -3.1197  -3.0738  -2.9942  -2.9634  -2.9177
    -2.8494  -2.8149  -2.7698  -2.7240  -2.6923  -2.6308  -2.5748  -2.5016
    -2.4048  -2.3734  -2.3010  -2.2356  -2.2115  -2.1854  -2.1411  -2.0992
    -2.0912  -2.0566  -2.0184  -1.9914  -1.9336  -1.8815  -1.2007   0.4535
     0.6796   1.7529   2.0834   2.6064   2.7604   3.4652   3.7982   4.0769
     4.5366   4.9134   5.0493   5.5009   5.6304   5.6788   5.7705

          k = 0.0000 0.2570 0.0000 ( 31870 PWs)   bands (ev):

    -5.7987  -5.0857  -4.9462  -4.8212  -4.7565  -4.6923  -4.5574  -4.5249
    -4.4590  -4.4206  -4.3187  -4.2588  -4.2122  -4.1189  -4.0024  -3.9735
    -3.9517  -3.9070  -3.8409  -3.7840  -3.7518  -3.7199  -3.6657  -3.6455
    -3.6371  -3.5527  -3.5410  -3.4731  -3.4226  -3.3522  -3.3374  -3.2827
    -3.2476  -3.1804  -3.1228  -3.1031  -3.0350  -3.0041  -2.9587  -2.9436
    -2.8779  -2.8109  -2.8003  -2.7277  -2.6502  -2.6270  -2.4852  -2.4111
    -2.3614  -2.3419  -2.3135  -2.2477  -2.2191  -2.1815  -2.1251  -2.0893
    -2.0594  -2.0290  -2.0061  -1.9924  -1.9087  -1.9015  -1.0021  -0.7871
     0.4063   1.0493   1.7562   2.2980   2.7219   3.0562   3.4326   3.8908
     4.4678   4.8866   5.3330   5.4707   5.7442   6.0170   6.0460

          k = 0.0000 0.3855 0.0000 ( 31856 PWs)   bands (ev):

    -5.3601  -4.9854  -4.8958  -4.8652  -4.7306  -4.6401  -4.5497  -4.5187
    -4.4834  -4.3844  -4.3091  -4.2450  -4.1856  -4.1167  -4.0676  -3.9550
    -3.9108  -3.8713  -3.8291  -3.8008  -3.7760  -3.7614  -3.7219  -3.6733
    -3.6297  -3.5845  -3.5560  -3.4804  -3.4474  -3.4292  -3.3488  -3.3253
    -3.2539  -3.1940  -3.1481  -3.0860  -3.0581  -2.9752  -2.9236  -2.8866
    -2.8597  -2.7943  -2.7735  -2.6319  -2.5780  -2.5526  -2.4594  -2.3871
    -2.3675  -2.3027  -2.2883  -2.2769  -2.2143  -2.1576  -2.1377  -2.0917
    -2.0864  -2.0449  -2.0094  -1.9871  -1.9599  -1.8888  -1.8131  -0.7039
    -0.4711   1.1534   1.5279   1.6824   2.6869   2.9853   3.4425   3.6775
     3.8703   5.1322   5.3029   5.4088   5.6509   5.8305   6.3684

          k = 0.0000-0.5140 0.0000 ( 31844 PWs)   bands (ev):

    -4.9835  -4.9687  -4.9212  -4.8618  -4.7325  -4.6516  -4.5955  -4.5383
    -4.5165  -4.4077  -4.2637  -4.2205  -4.1797  -4.1208  -4.1028  -3.9668
    -3.9547  -3.8945  -3.7884  -3.7872  -3.7753  -3.7596  -3.6957  -3.6441
    -3.6334  -3.5473  -3.5374  -3.4832  -3.4596  -3.4410  -3.4245  -3.3525
    -3.2500  -3.1974  -3.1858  -3.0794  -3.0718  -3.0207  -2.9600  -2.8243
    -2.8051  -2.7797  -2.7092  -2.5652  -2.4865  -2.4408  -2.4392  -2.4091
    -2.3565  -2.3125  -2.3098  -2.3016  -2.2942  -2.2546  -2.2478  -2.1568
    -2.0917  -2.0349  -2.0328  -1.9991  -1.9661  -1.9517  -1.6558  -1.3946
     0.0682   0.4195   1.5759   2.0924   2.4195   2.7662   3.2503   3.7781
     4.0221   4.7650   5.3074   5.3217   5.6850   6.2741   6.4915

          k = 0.1254-0.0642 0.0000 ( 31889 PWs)   bands (ev):

    -6.0894  -5.0596  -5.0018  -4.9543  -4.8298  -4.7227  -4.6305  -4.6079
    -4.4893  -4.4309  -4.3714  -4.3286  -4.2659  -4.1640  -4.0647  -4.0237
    -3.9158  -3.8592  -3.8096  -3.7707  -3.7360  -3.6856  -3.6296  -3.5869
    -3.5064  -3.4947  -3.4620  -3.3668  -3.3419  -3.3091  -3.2826  -3.2272
    -3.2062  -3.1809  -3.1366  -3.0535  -3.0312  -2.9649  -2.9453  -2.8715
    -2.8649  -2.8047  -2.7606  -2.7469  -2.6668  -2.6531  -2.5728  -2.4994
    -2.4425  -2.3973  -2.2873  -2.2553  -2.2133  -2.1948  -2.1572  -2.1186
    -2.1022  -2.0532  -2.0300  -1.9677  -1.9503  -1.9134  -1.2214   0.6742
     1.2672   1.4017   2.1597   2.4266   2.6945   2.9570   3.5759   3.8455
     4.4892   4.5291   5.0534   5.2197   5.3034   5.6265   5.6852

          k = 0.1254 0.0643 0.0000 ( 31896 PWs)   bands (ev):

    -6.0893  -5.0645  -5.0052  -4.9524  -4.8179  -4.7192  -4.6347  -4.6210
    -4.4689  -4.4327  -4.3751  -4.2937  -4.2477  -4.1919  -4.1217  -4.0355
    -3.9421  -3.8549  -3.7833  -3.7635  -3.7091  -3.6645  -3.6436  -3.5850
    -3.5605  -3.4714  -3.4566  -3.3889  -3.3412  -3.3107  -3.2698  -3.2456
    -3.2044  -3.1514  -3.1333  -3.0793  -3.0168  -3.0046  -2.9043  -2.8881
    -2.8496  -2.8021  -2.7432  -2.7192  -2.6941  -2.6368  -2.5809  -2.4840
    -2.4323  -2.3956  -2.3156  -2.2398  -2.2165  -2.2114  -2.1809  -2.1237
    -2.0914  -2.0378  -2.0238  -2.0009  -1.9491  -1.8943  -1.2281   0.6619
     1.2810   1.4242   2.1547   2.4516   2.7039   2.9876   3.5738   3.7452
     4.4731   4.8684   4.9507   5.0888   5.3003   5.6167   5.6990

          k = 0.1254 0.1928 0.0000 ( 31885 PWs)   bands (ev):

    -5.8822  -5.0718  -4.9613  -4.8827  -4.7098  -4.6896  -4.6320  -4.6156
    -4.5777  -4.4335  -4.3865  -4.2922  -4.2384  -4.1135  -4.0854  -3.9571
    -3.9209  -3.8621  -3.8276  -3.7693  -3.7002  -3.6910  -3.6608  -3.6391
    -3.5730  -3.5390  -3.5059  -3.4446  -3.3610  -3.3355  -3.2638  -3.2481
    -3.2132  -3.1486  -3.1364  -3.0620  -3.0305  -3.0049  -2.9269  -2.8968
    -2.8717  -2.8088  -2.7522  -2.7208  -2.6523  -2.6387  -2.5373  -2.4539
    -2.4154  -2.3340  -2.3200  -2.2671  -2.2243  -2.1935  -2.1562  -2.1348
    -2.0665  -2.0344  -2.0111  -1.9783  -1.9197  -1.8805  -1.0779  -0.0118
     0.7802   0.9207   1.2932   2.4481   2.8033   2.9960   3.1852   4.2689
     4.2928   4.7804   5.2408   5.4025   5.7630   5.8418   5.9046

          k = 0.1254 0.3213 0.0000 ( 31860 PWs)   bands (ev):

    -5.5070  -5.0187  -4.8620  -4.8195  -4.7697  -4.6957  -4.6643  -4.5988
    -4.5066  -4.3944  -4.3323  -4.2558  -4.2066  -4.1417  -4.0088  -3.9889
    -3.9234  -3.8760  -3.8239  -3.7969  -3.7705  -3.7246  -3.7022  -3.6601
    -3.6261  -3.5867  -3.5172  -3.4333  -3.4254  -3.3731  -3.2968  -3.2796
    -3.2006  -3.1633  -3.0909  -3.0742  -3.0042  -2.9573  -2.9329  -2.9146
    -2.8671  -2.8125  -2.7731  -2.6712  -2.6286  -2.5507  -2.4676  -2.4324
    -2.3960  -2.3523  -2.3048  -2.2283  -2.2028  -2.1858  -2.1064  -2.0985
    -2.0790  -2.0662  -1.9927  -1.9752  -1.9643  -1.9036  -1.2343  -0.6643
    -0.0706   0.6026   1.3198   1.7988   2.1945   3.2553   3.6729   3.8460
     4.0385   5.0509   5.1493   5.6073   5.8762   6.0828   6.1579

          k = 0.1254-0.5782 0.0000 ( 31827 PWs)   bands (ev):

    -5.0867  -4.9036  -4.8764  -4.8424  -4.7830  -4.7155  -4.6211  -4.5343
    -4.4925  -4.4100  -4.3941  -4.2503  -4.1705  -4.1293  -4.0605  -3.9841
    -3.9539  -3.9211  -3.8266  -3.8093  -3.7689  -3.7295  -3.6995  -3.6434
    -3.5691  -3.5561  -3.5409  -3.4929  -3.4507  -3.4065  -3.3994  -3.2691
    -3.2035  -3.1717  -3.1179  -3.1024  -3.0159  -2.9764  -2.9171  -2.8341
    -2.8234  -2.7705  -2.7311  -2.5549  -2.5181  -2.4811  -2.4248  -2.4198
    -2.3974  -2.3274  -2.3042  -2.2671  -2.2645  -2.2344  -2.1414  -2.1183
    -2.1044  -2.0212  -2.0099  -1.9918  -1.9438  -1.9184  -1.7448  -1.0627
    -0.1282   0.5014   0.8297   1.7037   2.2031   2.9520   3.6088   3.8448
     4.0849   4.9440   5.2515   5.5094   6.0618   6.3062   6.6591

          k = 0.1254-0.4497 0.0000 ( 31830 PWs)   bands (ev):

    -5.0892  -4.8947  -4.8783  -4.8482  -4.7800  -4.7380  -4.6280  -4.5177
    -4.4693  -4.4313  -4.3337  -4.2603  -4.2271  -4.1129  -4.0690  -3.9802
    -3.9470  -3.9024  -3.8464  -3.7924  -3.7774  -3.7398  -3.7105  -3.6568
    -3.6015  -3.5362  -3.5207  -3.4766  -3.4341  -3.4084  -3.3424  -3.2949
    -3.2217  -3.1884  -3.1373  -3.0991  -3.0010  -2.9934  -2.9304  -2.8102
    -2.7894  -2.7443  -2.7321  -2.6218  -2.5371  -2.4734  -2.4325  -2.4295
    -2.3683  -2.3211  -2.2943  -2.2865  -2.2181  -2.2100  -2.1467  -2.1245
    -2.0873  -2.0503  -2.0430  -1.9979  -1.9433  -1.8795  -1.7792  -1.0587
    -0.1085   0.4219   0.8510   1.8283   2.0233   2.9723   3.7275   3.8790
     4.0749   4.8825   5.1593   5.5015   6.1717   6.2517   6.6458

          k = 0.1254-0.3212 0.0000 ( 31860 PWs)   bands (ev):

    -5.5089  -5.0130  -4.8539  -4.8263  -4.7868  -4.7338  -4.6177  -4.5798
    -4.5455  -4.4022  -4.2972  -4.2367  -4.1759  -4.0975  -4.0541  -3.9716
    -3.9632  -3.9252  -3.8569  -3.8064  -3.7806  -3.7095  -3.6892  -3.6508
    -3.6049  -3.5436  -3.4720  -3.4477  -3.4021  -3.3630  -3.3365  -3.2828
    -3.2128  -3.1638  -3.1423  -3.0408  -3.0211  -3.0064  -2.8827  -2.8646
    -2.8334  -2.8318  -2.7369  -2.7070  -2.6521  -2.5940  -2.4861  -2.3875
    -2.3762  -2.2918  -2.2820  -2.2691  -2.2226  -2.2147  -2.1612  -2.0879
    -2.0778  -2.0363  -2.0073  -2.0031  -1.9510  -1.8872  -1.2053  -0.6836
    -0.0930   0.5860   1.3553   1.6854   2.1670   3.3435   3.6602   3.7723
     4.2732   4.9618   5.0940   5.6465   5.6967   6.0053   6.1787

          k = 0.1254-0.1927 0.0000 ( 31876 PWs)   bands (ev):

    -5.8829  -5.0654  -4.9531  -4.8964  -4.7242  -4.6877  -4.6168  -4.6129
    -4.5935  -4.4730  -4.3834  -4.2819  -4.1694  -4.1389  -3.9947  -3.9842
    -3.9437  -3.8696  -3.8504  -3.7907  -3.7361  -3.7090  -3.6159  -3.5970
    -3.5780  -3.5181  -3.4907  -3.4047  -3.3783  -3.3500  -3.3069  -3.2061
    -3.1890  -3.1819  -3.1249  -3.0901  -3.0237  -2.9963  -2.9463  -2.9334
    -2.8475  -2.7981  -2.7670  -2.7202  -2.6609  -2.6492  -2.5295  -2.4800
    -2.4120  -2.3499  -2.3019  -2.2494  -2.2173  -2.1799  -2.1515  -2.1381
    -2.0795  -2.0502  -1.9976  -1.9765  -1.9137  -1.8833  -1.0624  -0.0288
     0.8428   0.8663   1.2439   2.3190   2.8607   3.0612   3.1206   4.2217
     4.4909   4.6781   5.2234   5.3023   5.7503   5.8837   5.9247

          k = 0.2508-0.1284 0.0000 ( 31864 PWs)   bands (ev):

    -5.7396  -5.0354  -4.9409  -4.9097  -4.8475  -4.7652  -4.7169  -4.6521
    -4.6139  -4.4674  -4.4018  -4.3517  -4.1758  -4.1407  -4.0483  -4.0040
    -3.9468  -3.8720  -3.8505  -3.7608  -3.7390  -3.6543  -3.5897  -3.5709
    -3.5206  -3.4507  -3.4178  -3.4128  -3.3690  -3.3278  -3.2609  -3.2002
    -3.1438  -3.1313  -3.1008  -3.0290  -2.9914  -2.9677  -2.8996  -2.8696
    -2.8316  -2.7549  -2.6840  -2.6563  -2.6194  -2.5737  -2.5630  -2.4918
    -2.4440  -2.3462  -2.3218  -2.2804  -2.2399  -2.2103  -2.1669  -2.1067
    -2.0759  -2.0395  -1.9855  -1.9482  -1.9416  -1.8927  -1.0213  -0.1147
     0.9028   1.0966   1.3816   1.6898   2.1569   2.8607   2.9586   3.3670
     3.9592   4.5611   4.9227   5.3979   5.4537   5.5406   6.0765

          k = 0.2508 0.0001 0.0000 ( 31848 PWs)   bands (ev):

    -5.8361  -5.0612  -4.9444  -4.9005  -4.8438  -4.8324  -4.7777  -4.6933
    -4.5745  -4.4256  -4.3257  -4.2778  -4.1884  -4.1233  -4.0709  -3.9906
    -3.9713  -3.9436  -3.8910  -3.8199  -3.7065  -3.6238  -3.6028  -3.5510
    -3.5215  -3.4752  -3.4318  -3.4041  -3.3838  -3.3161  -3.2938  -3.1941
    -3.1473  -3.1184  -3.0693  -3.0300  -2.9951  -2.9258  -2.9017  -2.8485
    -2.7823  -2.7495  -2.7043  -2.6585  -2.6222  -2.5685  -2.5292  -2.4828
    -2.4308  -2.3745  -2.3404  -2.2911  -2.2170  -2.1954  -2.1714  -2.1540
    -2.0995  -2.0829  -2.0159  -1.9694  -1.9055  -1.8852  -1.1176   0.5922
     0.6612   0.9141   1.9108   2.1639   2.3189   2.8407   3.0020   3.3293
     4.0039   4.2415   4.6849   5.0390   5.3101   5.6443   5.8639

          k = 0.2508 0.1286 0.0000 ( 31864 PWs)   bands (ev):

    -5.7388  -5.0312  -4.9459  -4.9174  -4.8345  -4.7708  -4.7170  -4.6898
    -4.5183  -4.4874  -4.4049  -4.3513  -4.1796  -4.1351  -4.0969  -3.9958
    -3.9772  -3.9050  -3.8797  -3.7531  -3.7387  -3.6470  -3.5898  -3.5572
    -3.5071  -3.4745  -3.4216  -3.3931  -3.3716  -3.3084  -3.2876  -3.1963
    -3.1740  -3.1252  -3.0676  -3.0413  -2.9970  -2.9749  -2.8970  -2.8533
    -2.7874  -2.7203  -2.6857  -2.6550  -2.6218  -2.5843  -2.5638  -2.4645
    -2.4242  -2.3852  -2.3240  -2.2863  -2.2330  -2.1855  -2.1812  -2.1340
    -2.0947  -2.0300  -1.9835  -1.9688  -1.9541  -1.8783  -1.0376  -0.0938
     0.9237   1.1172   1.4698   1.6722   2.2259   2.8044   2.9661   3.2667
     3.9445   4.7559   5.0722   5.3266   5.3804   5.6392   5.9210

          k = 0.2508 0.2571 0.0000 ( 31870 PWs)   bands (ev):

    -5.4685  -4.9809  -4.9088  -4.8759  -4.8031  -4.7054  -4.6938  -4.6803
    -4.6270  -4.4558  -4.4116  -4.3111  -4.1920  -4.1631  -4.1044  -4.0284
    -3.9860  -3.8433  -3.8191  -3.7855  -3.7498  -3.7044  -3.6421  -3.5866
    -3.5480  -3.5079  -3.4884  -3.3804  -3.3696  -3.2714  -3.2326  -3.2014
    -3.1628  -3.1444  -3.1121  -3.0193  -2.9855  -2.9463  -2.8854  -2.8306
    -2.7991  -2.7569  -2.7192  -2.6841  -2.6021  -2.5668  -2.5231  -2.4755
    -2.3874  -2.3334  -2.3039  -2.2604  -2.2012  -2.1615  -2.1476  -2.1280
    -2.0787  -2.0410  -2.0251  -1.9672  -1.9442  -1.9019  -0.7980  -0.5107
    -0.1828   0.7926   0.8944   1.4756   2.5999   2.6674   2.9820   3.1477
     4.1202   4.7753   5.2757   5.4493   5.7729   6.1753   6.2865

          k = 0.2508-0.6425 0.0000 ( 31850 PWs)   bands (ev):

    -5.1256  -4.9477  -4.8816  -4.8263  -4.7990  -4.7476  -4.6644  -4.6066
    -4.5529  -4.4304  -4.3854  -4.2844  -4.2302  -4.1704  -4.0578  -4.0178
    -3.9888  -3.9301  -3.8783  -3.8312  -3.7465  -3.7285  -3.6550  -3.6332
    -3.5903  -3.5804  -3.4871  -3.4420  -3.3765  -3.3283  -3.2778  -3.2065
    -3.1899  -3.1126  -3.1021  -3.0229  -2.9507  -2.9180  -2.8522  -2.8017
    -2.7818  -2.7243  -2.6889  -2.5647  -2.5359  -2.5184  -2.4392  -2.4242
    -2.4132  -2.3764  -2.3018  -2.2803  -2.2307  -2.1897  -2.1371  -2.0978
    -2.0738  -2.0161  -2.0123  -1.9476  -1.9357  -1.8234  -1.2964  -0.7368
    -0.3569  -0.1643   0.6823   1.5471   1.9149   2.4701   3.3815   3.6335
     4.3940   4.7852   5.6043   5.8514   6.0289   6.2655   6.5047

          k = 0.2508-0.5140 0.0000 ( 31773 PWs)   bands (ev):

    -4.9937  -4.9902  -4.8271  -4.7624  -4.7400  -4.6839  -4.6549  -4.6473
    -4.5605  -4.4112  -4.3014  -4.2873  -4.2331  -4.1522  -4.0934  -4.0717
    -4.0146  -3.9794  -3.9303  -3.8292  -3.7783  -3.7553  -3.6720  -3.6623
    -3.5569  -3.4965  -3.4718  -3.4236  -3.3944  -3.3448  -3.2884  -3.2323
    -3.2089  -3.1498  -3.0929  -3.0572  -2.9767  -2.9223  -2.8847  -2.8242
    -2.7606  -2.6793  -2.6050  -2.5639  -2.5069  -2.4736  -2.4406  -2.3844
    -2.3417  -2.3154  -2.2836  -2.2655  -2.2150  -2.1734  -2.1366  -2.0929
    -2.0702  -2.0334  -1.9885  -1.9813  -1.9289  -1.8891  -1.4082  -1.1078
    -0.7483   0.2563   0.5192   0.9270   2.3289   2.5133   2.8676   3.8334
     4.4861   5.3311   5.6959   6.0916   6.3810   6.5809   6.6424

          k = 0.2508-0.3854 0.0000 ( 31842 PWs)   bands (ev):

    -5.1299  -4.9507  -4.8659  -4.8506  -4.7947  -4.7558  -4.6866  -4.6093
    -4.5157  -4.4388  -4.3673  -4.2773  -4.1876  -4.1678  -4.0872  -4.0228
    -3.9877  -3.8887  -3.8660  -3.8200  -3.7561  -3.7422  -3.7073  -3.6589
    -3.6564  -3.5211  -3.4377  -3.4024  -3.3756  -3.3348  -3.2819  -3.2238
    -3.1615  -3.1244  -3.1031  -3.0135  -2.9742  -2.9201  -2.8662  -2.8313
    -2.7579  -2.7090  -2.6441  -2.6026  -2.5677  -2.5278  -2.4969  -2.3860
    -2.3682  -2.3263  -2.2903  -2.2675  -2.2272  -2.1950  -2.1270  -2.1110
    -2.0650  -2.0389  -2.0012  -1.9755  -1.9008  -1.8711  -1.2999  -0.7382
    -0.3582  -0.2198   0.6013   1.5303   1.9011   2.5346   3.4141   3.8835
     4.3935   4.4313   5.4250   5.7704   6.1731   6.2255   6.6204

          k = 0.2508-0.2569 0.0000 ( 31875 PWs)   bands (ev):

    -5.4712  -4.9689  -4.9364  -4.8718  -4.7883  -4.7214  -4.6898  -4.6663
    -4.6583  -4.4751  -4.3871  -4.2779  -4.1820  -4.1326  -4.1274  -4.0373
    -3.9044  -3.8902  -3.8229  -3.7859  -3.7779  -3.6722  -3.6327  -3.6178
    -3.5178  -3.4694  -3.4540  -3.3860  -3.3675  -3.3380  -3.2604  -3.1848
    -3.1756  -3.1329  -3.0848  -3.0323  -2.9998  -2.9283  -2.8721  -2.8532
    -2.8144  -2.7719  -2.6863  -2.6816  -2.6144  -2.5891  -2.5194  -2.4438
    -2.3520  -2.3340  -2.3217  -2.2987  -2.2226  -2.1816  -2.1675  -2.0990
    -2.0751  -2.0347  -1.9946  -1.9794  -1.9461  -1.8780  -0.7383  -0.5730
    -0.2145   0.5866   1.0579   1.3785   2.3126   2.8679   3.0131   3.4976
     4.0824   4.3722   5.2678   5.4857   5.7147   6.0453   6.3824

          k = 0.3762-0.1926 0.0000 ( 31840 PWs)   bands (ev):

    -5.2608  -5.0516  -4.9864  -4.8906  -4.8433  -4.8160  -4.6673  -4.6259
    -4.5701  -4.4737  -4.3898  -4.3584  -4.2573  -4.2042  -4.1489  -4.0457
    -3.9729  -3.8562  -3.8140  -3.7822  -3.7637  -3.6549  -3.6130  -3.5487
    -3.5038  -3.4663  -3.4129  -3.3900  -3.3672  -3.2748  -3.2596  -3.2132
    -3.1192  -3.0757  -3.0669  -3.0216  -3.0043  -2.8962  -2.8478  -2.7923
    -2.7712  -2.7168  -2.6609  -2.6335  -2.6044  -2.5423  -2.4896  -2.4193
    -2.3644  -2.3426  -2.2976  -2.2034  -2.1983  -2.1612  -2.1270  -2.0627
    -2.0379  -2.0088  -1.9872  -1.9406  -1.9139  -1.9031  -1.3670  -0.5111
    -0.1460   0.9929   1.2444   1.5291   1.6414   1.9990   2.5907   3.5258
     3.6158   3.8508   4.8456   5.5679   5.9146   5.9888   6.4535

          k = 0.3762-0.0641 0.0000 ( 31882 PWs)   bands (ev):

    -5.4041  -5.0981  -5.0011  -4.9407  -4.8587  -4.7652  -4.6913  -4.6633
    -4.5857  -4.4413  -4.3217  -4.2850  -4.2096  -4.1589  -4.1284  -4.0629
    -4.0302  -3.8842  -3.8031  -3.7881  -3.7226  -3.6836  -3.6159  -3.5711
    -3.5347  -3.5148  -3.4415  -3.4201  -3.3582  -3.2985  -3.2537  -3.1875
    -3.1421  -3.1169  -3.0608  -3.0079  -2.9749  -2.9259  -2.9017  -2.8550
    -2.7431  -2.6838  -2.6269  -2.5933  -2.5792  -2.5219  -2.4564  -2.4363
    -2.3555  -2.3140  -2.2952  -2.2744  -2.2025  -2.1522  -2.1291  -2.0888
    -2.0494  -2.0363  -1.9985  -1.9599  -1.9133  -1.8928  -0.7769  -0.7126
     0.1464   0.4305   1.2763   1.5684   2.1456   2.4990   2.8820   3.4473
     3.7142   4.0009   4.5804   5.3960   5.6001   5.7873   5.8571

          k = 0.3762 0.0644 0.0000 ( 31884 PWs)   bands (ev):

    -5.4043  -5.0851  -5.0114  -4.9364  -4.8602  -4.7781  -4.6876  -4.6805
    -4.5310  -4.4301  -4.3668  -4.2659  -4.1974  -4.1745  -4.1398  -4.0649
    -4.0332  -3.9395  -3.8357  -3.7643  -3.7312  -3.6630  -3.6184  -3.6074
    -3.5081  -3.4853  -3.4513  -3.4077  -3.3630  -3.3085  -3.2476  -3.1644
    -3.1381  -3.0990  -3.0812  -3.0091  -2.9869  -2.9556  -2.8756  -2.8572
    -2.7349  -2.6848  -2.6401  -2.5949  -2.5398  -2.5201  -2.4460  -2.4233
    -2.3506  -2.3416  -2.3066  -2.2347  -2.2075  -2.1605  -2.1204  -2.1110
    -2.0769  -2.0224  -2.0051  -1.9757  -1.9130  -1.8953  -0.8493  -0.6155
     0.1266   0.5420   1.2720   1.4720   2.2812   2.5246   2.8244   3.2534
     3.5880   4.4757   4.6164   5.2573   5.6219   5.7453   5.8500

          k = 0.3762 0.1929 0.0000 ( 31850 PWs)   bands (ev):

    -5.2605  -5.0302  -4.9882  -4.8823  -4.8574  -4.8253  -4.6649  -4.6411
    -4.5188  -4.4381  -4.4203  -4.3896  -4.2562  -4.1955  -4.1111  -4.0937
    -4.0526  -3.9160  -3.8281  -3.7986  -3.7267  -3.6820  -3.6035  -3.5477
    -3.5383  -3.4485  -3.4173  -3.3683  -3.3004  -3.2654  -3.2476  -3.1917
    -3.1558  -3.1020  -3.0513  -3.0158  -2.9721  -2.9073  -2.8861  -2.7741
    -2.7545  -2.7213  -2.6918  -2.6410  -2.5458  -2.5263  -2.4801  -2.4535
    -2.3813  -2.3584  -2.2547  -2.2185  -2.1930  -2.1303  -2.1016  -2.0926
    -2.0569  -2.0283  -1.9955  -1.9666  -1.9412  -1.9001  -1.3363  -0.5608
     0.0612   1.0387   1.2351   1.4630   1.7641   2.1484   2.4244   2.9380
     3.7358   4.4757   4.8837   5.5540   5.9774   6.1193   6.3158

          k = 0.3762-0.7067 0.0000 ( 31862 PWs)   bands (ev):

    -5.0622  -5.0246  -4.9599  -4.8980  -4.8107  -4.7504  -4.6519  -4.6037
    -4.5277  -4.4643  -4.3839  -4.3392  -4.2702  -4.2506  -4.1396  -4.0889
    -4.0228  -3.9208  -3.8238  -3.7964  -3.7583  -3.7210  -3.6376  -3.6001
    -3.5964  -3.4920  -3.4572  -3.3659  -3.3404  -3.3155  -3.2150  -3.2089
    -3.1439  -3.0999  -3.0410  -3.0244  -2.9107  -2.8476  -2.8221  -2.7706
    -2.7392  -2.7064  -2.6625  -2.5885  -2.5600  -2.5025  -2.4866  -2.4152
    -2.3917  -2.3158  -2.2489  -2.2450  -2.1805  -2.1595  -2.1234  -2.1007
    -2.0591  -2.0142  -1.9872  -1.9622  -1.9218  -1.7928  -1.5187  -0.5031
    -0.3270   0.1572   0.7145   1.4298   1.9697   2.4042   2.7134   2.8359
     3.8883   4.5037   4.9718   5.8113   6.0545   6.1854   6.5157

          k = 0.3762-0.5782 0.0000 ( 31805 PWs)   bands (ev):

    -5.0825  -5.0573  -4.9006  -4.8234  -4.7230  -4.6946  -4.6457  -4.4983
    -4.4632  -4.4212  -4.3876  -4.3039  -4.2544  -4.2004  -4.1508  -4.1342
    -4.0446  -3.9833  -3.9358  -3.8986  -3.7350  -3.6984  -3.6649  -3.5963
    -3.5756  -3.5715  -3.4555  -3.4118  -3.3862  -3.3009  -3.2607  -3.1860
    -3.1657  -3.1354  -3.0515  -3.0003  -2.9511  -2.9232  -2.8697  -2.7869
    -2.7240  -2.6566  -2.5774  -2.5383  -2.4784  -2.4524  -2.4415  -2.4078
    -2.3316  -2.3021  -2.2345  -2.2134  -2.1582  -2.1256  -2.0940  -2.0776
    -2.0496  -2.0145  -1.9717  -1.9661  -1.9083  -1.6830  -1.3179  -1.1849
    -0.5631  -0.3002   0.5542   1.3091   1.5260   2.4964   2.8419   3.5928
     4.2880   4.5670   5.5111   5.8641   6.1734   6.3383   6.5883

          k = 0.3762-0.4497 0.0000 ( 31825 PWs)   bands (ev):

    -5.0820  -5.0627  -4.8942  -4.8245  -4.7426  -4.7023  -4.6257  -4.5216
    -4.4833  -4.4167  -4.3625  -4.2654  -4.2498  -4.1833  -4.1749  -4.1420
    -4.0339  -4.0187  -3.8813  -3.8148  -3.7698  -3.7109  -3.6695  -3.6401
    -3.6290  -3.5351  -3.4874  -3.4090  -3.3270  -3.3015  -3.2549  -3.2215
    -3.1641  -3.0839  -3.0486  -3.0163  -2.9829  -2.9136  -2.8604  -2.7896
    -2.7469  -2.6598  -2.5756  -2.5642  -2.5034  -2.4387  -2.4002  -2.3731
    -2.3439  -2.2793  -2.2649  -2.2009  -2.1736  -2.1329  -2.0899  -2.0752
    -2.0603  -1.9942  -1.9873  -1.9147  -1.8884  -1.6974  -1.3006  -1.2141
    -0.7267  -0.1788   0.4761   1.1424   1.7199   2.5311   2.9031   3.6229
     4.2545   4.3883   5.2976   5.9610   6.1869   6.5657   6.6305

          k = 0.3762-0.3212 0.0000 ( 31851 PWs)   bands (ev):

    -5.0687  -5.0323  -4.9517  -4.8965  -4.8288  -4.7724  -4.6519  -4.5544
    -4.5236  -4.4944  -4.4348  -4.3114  -4.2638  -4.1821  -4.1548  -4.0771
    -3.9790  -3.8653  -3.8159  -3.8010  -3.7683  -3.7104  -3.6534  -3.6452
    -3.6138  -3.4497  -3.4299  -3.3821  -3.3444  -3.3002  -3.2546  -3.2234
    -3.1519  -3.0838  -3.0526  -2.9943  -2.9597  -2.8931  -2.8251  -2.7793
    -2.7032  -2.6923  -2.6460  -2.6139  -2.5538  -2.5024  -2.4532  -2.4093
    -2.3741  -2.2900  -2.2517  -2.2380  -2.2054  -2.1516  -2.1308  -2.1117
    -2.0362  -2.0222  -2.0159  -1.9358  -1.8959  -1.7253  -1.6221  -0.5206
    -0.2955  -0.0748   0.7229   1.3591   1.9683   2.4241   2.7402   3.3152
     3.8802   3.9265   4.8679   5.6078   6.1478   6.3953   6.5729

          k =-0.5016 0.2569 0.0000 ( 31850 PWs)   bands (ev):

    -5.0526  -5.0394  -4.9654  -4.8913  -4.8796  -4.7429  -4.7174  -4.5414
    -4.5362  -4.4374  -4.4069  -4.3577  -4.3251  -4.2874  -4.1419  -4.0147
    -3.9990  -3.9493  -3.7921  -3.7788  -3.7257  -3.6788  -3.6732  -3.6255
    -3.5369  -3.4318  -3.3667  -3.3451  -3.3405  -3.2922  -3.2797  -3.1880
    -3.1615  -3.1017  -3.0383  -2.9739  -2.9567  -2.9243  -2.8152  -2.7766
    -2.7568  -2.6606  -2.6550  -2.5873  -2.5535  -2.5149  -2.4682  -2.4354
    -2.3315  -2.2828  -2.2183  -2.1911  -2.1650  -2.1565  -2.1168  -2.0770
    -2.0406  -2.0161  -2.0083  -1.9897  -1.9102  -1.9030  -1.2968  -1.2071
     0.1292   0.6426   1.0799   1.0803   1.7412   2.0749   2.4844   3.0084
     3.6855   3.7936   4.8854   5.1696   6.4146   6.4576   6.5836

          k =-0.5016 0.3854 0.0000 ( 31842 PWs)   bands (ev):

    -5.1176  -5.0321  -4.9857  -4.9184  -4.8685  -4.7279  -4.5909  -4.5663
    -4.5495  -4.4271  -4.4191  -4.3229  -4.2563  -4.2216  -4.1526  -4.0836
    -4.0039  -3.9455  -3.8114  -3.7545  -3.7377  -3.7164  -3.6723  -3.6321
    -3.5882  -3.4905  -3.4639  -3.3684  -3.3172  -3.2801  -3.2622  -3.2248
    -3.1187  -3.0966  -3.0432  -3.0050  -2.9664  -2.8937  -2.8574  -2.7911
    -2.7334  -2.6405  -2.6369  -2.6084  -2.5455  -2.4953  -2.4416  -2.3730
    -2.3381  -2.2878  -2.2645  -2.2149  -2.1565  -2.1260  -2.0882  -2.0578
    -2.0357  -2.0091  -2.0045  -1.9484  -1.9021  -1.7466  -1.4589  -0.8223
    -0.2691   0.1387   0.9316   1.0411   2.0762   2.3749   2.6349   3.2051
     3.7200   3.9048   4.8141   5.7913   6.0904   6.2671   6.2869

          k =-0.5016 0.5139 0.0000 ( 31845 PWs)   bands (ev):

    -5.1223  -5.1112  -4.9419  -4.9240  -4.9104  -4.6294  -4.6152  -4.5847
    -4.4992  -4.4176  -4.3091  -4.2850  -4.2616  -4.2033  -4.1935  -4.0906
    -4.0385  -3.9506  -3.8862  -3.8567  -3.7746  -3.6902  -3.6242  -3.5976
    -3.5623  -3.5329  -3.4711  -3.3968  -3.3543  -3.3154  -3.2453  -3.1740
    -3.1468  -3.1047  -3.0656  -3.0400  -3.0052  -2.9265  -2.8415  -2.8354
    -2.7595  -2.6266  -2.6058  -2.5824  -2.5169  -2.4674  -2.3821  -2.3731
    -2.2894  -2.2669  -2.2335  -2.1934  -2.1647  -2.1451  -2.0757  -2.0596
    -2.0375  -2.0264  -2.0018  -1.9693  -1.9306  -1.5347  -1.1678  -1.0837
    -0.3076  -0.0427   0.3305   1.5454   1.9589   2.0117   3.1725   3.6682
     4.0379   4.3518   4.5009   5.5760   5.6853   6.1124   6.2511

          k =-0.5016 0.6424 0.0000 ( 31851 PWs)   bands (ev):

    -5.1171  -5.0214  -4.9903  -4.9086  -4.8711  -4.7161  -4.6168  -4.5789
    -4.4814  -4.4729  -4.3624  -4.3260  -4.2914  -4.2209  -4.1608  -4.1261
    -4.0295  -3.9326  -3.9043  -3.8081  -3.7107  -3.7072  -3.6360  -3.6253
    -3.5870  -3.5195  -3.4142  -3.3559  -3.2964  -3.2716  -3.2468  -3.1962
    -3.1451  -3.1156  -3.0721  -3.0131  -2.9244  -2.8995  -2.8541  -2.7938
    -2.7593  -2.6736  -2.6069  -2.5916  -2.4912  -2.4582  -2.4424  -2.4267
    -2.3701  -2.2962  -2.2424  -2.1878  -2.1557  -2.1258  -2.0988  -2.0841
    -2.0708  -2.0217  -1.9851  -1.9574  -1.9367  -1.7749  -1.4127  -0.7808
    -0.1754   0.2176   0.8348   1.1781   2.0347   2.3515   2.6571   2.8155
     3.7497   4.3951   4.9710   5.8231   5.8874   6.1965   6.2869

          k =-0.5016-0.2572 0.0000 ( 31840 PWs)   bands (ev):

    -5.0458  -5.0341  -4.9663  -4.9077  -4.8387  -4.7586  -4.6979  -4.5754
    -4.5273  -4.4505  -4.3901  -4.3339  -4.2953  -4.2620  -4.1617  -4.1454
    -4.0586  -3.9590  -3.8406  -3.7576  -3.7297  -3.6971  -3.6506  -3.6179
    -3.4757  -3.4742  -3.4526  -3.3512  -3.3152  -3.2623  -3.2310  -3.1543
    -3.1330  -3.0916  -3.0534  -2.9817  -2.9411  -2.8491  -2.8001  -2.7831
    -2.7702  -2.7247  -2.6882  -2.6135  -2.5256  -2.4995  -2.4476  -2.4117
    -2.3640  -2.2697  -2.2393  -2.2376  -2.1755  -2.1361  -2.1288  -2.0895
    -2.0700  -2.0173  -1.9810  -1.9630  -1.9584  -1.9303  -1.3247  -1.0632
     0.2967   0.6990   1.0806   1.1052   1.8000   2.1653   2.2761   2.6032
     3.6130   4.4099   4.8257   5.6724   5.9787   6.3966   6.6171

     the Fermi energy is     0.9594 ev

!    total energy              =   -1011.33799376 Ry
     estimated scf accuracy    <       0.00000088 Ry
     smearing contrib. (-TS)   =      -0.00048407 Ry
     internal energy E=F+TS    =   -1011.33750970 Ry

     The total energy is F=E-TS. E is the sum of the following terms:
     one-electron contribution =  -10347.80624498 Ry
     hartree contribution      =    5264.41616622 Ry
     xc contribution           =    -267.74594564 Ry
     ewald contribution        =    4340.09334428 Ry
     DFT-D3 Dispersion         =      -0.29482958 Ry

     convergence has been achieved in   9 iterations

     negative rho (up, down):  4.227E-05 0.000E+00

     Forces acting on atoms (cartesian axes, Ry/au):

     atom    1 type  1   force =    -0.00229345    0.00030759   -0.01543429
     atom    2 type  1   force =     0.00148687    0.00105248   -0.00328233
     atom    3 type  1   force =    -0.00065578    0.00169995    0.00680135
     atom    4 type  1   force =     0.00159677   -0.00100050    0.00616312
     atom    5 type  1   force =    -0.00045388    0.00038361    0.00258407
     atom    6 type  1   force =     0.00177678   -0.00056305   -0.00207612
     atom    7 type  1   force =    -0.00179208    0.00056784    0.00204716
     atom    8 type  1   force =     0.00045729   -0.00038413   -0.00260691
     atom    9 type  1   force =    -0.00160417    0.00098861   -0.00619282
     atom   10 type  1   force =     0.00065828   -0.00169706   -0.00678038
     atom   11 type  1   force =    -0.00146484   -0.00105511    0.00331348
     atom   12 type  1   force =     0.00228821   -0.00030022    0.01546369
     The non-local contrib.  to forces
     atom    1 type  1   force =     0.02671409   -0.00536945    0.17205544
     atom    2 type  1   force =     0.02003657    0.00231824    0.09023205
     atom    3 type  1   force =    -0.01257787    0.01501928    0.02323173
     atom    4 type  1   force =     0.01076361    0.01048730    0.01348792
     atom    5 type  1   force =    -0.00762792   -0.00367118    0.01953822
     atom    6 type  1   force =     0.00636421   -0.00205217    0.01416253
     atom    7 type  1   force =    -0.00636824    0.00205996   -0.01411735
     atom    8 type  1   force =     0.00763109    0.00367167   -0.01950174
     atom    9 type  1   force =    -0.01076882   -0.01049118   -0.01346344
     atom   10 type  1   force =     0.01257886   -0.01501372   -0.02318421
     atom   11 type  1   force =    -0.02002032   -0.00231734   -0.09017815
     atom   12 type  1   force =    -0.02671531    0.00537384   -0.17199361
     The ionic contribution  to forces
     atom    1 type  1   force =     9.18038354    0.23665093  116.41378917
     atom    2 type  1   force =     8.86209004    0.45302982  102.72948963
     atom    3 type  1   force =     5.79596707    1.48359663   83.14802611
     atom    4 type  1   force =     4.56475193   -0.86059584   60.55153174
     atom    5 type  1   force =     2.98590057    0.41021578   35.19761972
     atom    6 type  1   force =     1.00434997   -0.04739560   11.69732294
     atom    7 type  1   force =    -1.00434997    0.04739560  -11.69732294
     atom    8 type  1   force =    -2.98590057   -0.41021578  -35.19761972
     atom    9 type  1   force =    -4.56475193    0.86059584  -60.55153174
     atom   10 type  1   force =    -5.79596707   -1.48359663  -83.14802611
     atom   11 type  1   force =    -8.86209004   -0.45302982 -102.72948963
     atom   12 type  1   force =    -9.18038354   -0.23665093 -116.41378917
     The local contribution  to forces
     atom    1 type  1   force =    -9.20891345   -0.23078954 -116.59249474
     atom    2 type  1   force =    -8.87993919   -0.45407270 -102.81379108
     atom    3 type  1   force =    -5.78326783   -1.49672944  -83.15538732
     atom    4 type  1   force =    -4.57343376    0.84922307  -60.55224751
     atom    5 type  1   force =    -2.97826368   -0.40582835  -35.21005274
     atom    6 type  1   force =    -1.00836756    0.04861794  -11.71213283
     atom    7 type  1   force =     1.00840295   -0.04861723   11.71250850
     atom    8 type  1   force =     2.97825769    0.40580883   35.21034742
     atom    9 type  1   force =     4.57346036   -0.84919577   60.55238293
     atom   10 type  1   force =     5.78326861    1.49673628   83.15537773
     atom   11 type  1   force =     8.87993008    0.45407751  102.81371334
     atom   12 type  1   force =     9.20891057    0.23078100  116.59240786
     The core correction contribution to forces
     atom    1 type  1   force =    -0.00025843    0.00015074   -0.00554171
     atom    2 type  1   force =    -0.00115140   -0.00028244   -0.00535077
     atom    3 type  1   force =     0.00040039   -0.00088180   -0.00418018
     atom    4 type  1   force =    -0.00020509    0.00069451   -0.00244075
     atom    5 type  1   force =    -0.00003254   -0.00004342   -0.00013262
     atom    6 type  1   force =    -0.00002710   -0.00001612   -0.00003408
     atom    7 type  1   force =     0.00002754    0.00001598    0.00003691
     atom    8 type  1   force =     0.00003112    0.00004248    0.00013531
     atom    9 type  1   force =     0.00020623   -0.00069306    0.00244029
     atom   10 type  1   force =    -0.00040067    0.00088246    0.00417708
     atom   11 type  1   force =     0.00115113    0.00028268    0.00534794
     atom   12 type  1   force =     0.00025868   -0.00015100    0.00553946
     The Hubbard contrib.    to forces
     atom    1 type  1   force =     0.00000000    0.00000000    0.00000000
     atom    2 type  1   force =     0.00000000    0.00000000    0.00000000
     atom    3 type  1   force =     0.00000000    0.00000000    0.00000000
     atom    4 type  1   force =     0.00000000    0.00000000    0.00000000
     atom    5 type  1   force =     0.00000000    0.00000000    0.00000000
     atom    6 type  1   force =     0.00000000    0.00000000    0.00000000
     atom    7 type  1   force =     0.00000000    0.00000000    0.00000000
     atom    8 type  1   force =     0.00000000    0.00000000    0.00000000
     atom    9 type  1   force =     0.00000000    0.00000000    0.00000000
     atom   10 type  1   force =     0.00000000    0.00000000    0.00000000
     atom   11 type  1   force =     0.00000000    0.00000000    0.00000000
     atom   12 type  1   force =     0.00000000    0.00000000    0.00000000
     The SCF correction term to forces
     atom    1 type  1   force =     0.00009216    0.00004157    0.00072542
     atom    2 type  1   force =    -0.00006021   -0.00004550    0.00031361
     atom    3 type  1   force =     0.00002678   -0.00015011   -0.00023349
     atom    4 type  1   force =     0.00001571   -0.00001793   -0.00005020
     atom    5 type  1   force =    -0.00000000   -0.00000000   -0.00000000
     atom    6 type  1   force =    -0.00000000    0.00000000   -0.00000000
     atom    7 type  1   force =     0.00000000   -0.00000000   -0.00000000
     atom    8 type  1   force =     0.00000000    0.00000000   -0.00000000
     atom    9 type  1   force =    -0.00000000   -0.00000000   -0.00000000
     atom   10 type  1   force =    -0.00000000    0.00000000    0.00000000
     atom   11 type  1   force =     0.00000000    0.00000000   -0.00000000
     atom   12 type  1   force =    -0.00000000   -0.00000000   -0.00000000

     DFT-D3 dispersion contribution to forces:
     atom    1 type  1   force =    -0.00031195   -0.00037662   -0.00395535
     atom    2 type  1   force =     0.00051047    0.00010510   -0.00416325
     atom    3 type  1   force =    -0.00120492    0.00084544   -0.00464297
     atom    4 type  1   force =    -0.00029623   -0.00079155   -0.00410555
     atom    5 type  1   force =    -0.00034993   -0.00012882   -0.00408836
     atom    6 type  1   force =    -0.00017265    0.00005605   -0.00131990
     atom    7 type  1   force =     0.00017265   -0.00005605    0.00131990
     atom    8 type  1   force =     0.00034993    0.00012882    0.00408836
     atom    9 type  1   force =     0.00029623    0.00079155    0.00410555
     atom   10 type  1   force =     0.00120492   -0.00084544    0.00464297
     atom   11 type  1   force =    -0.00051047   -0.00010510    0.00416325
     atom   12 type  1   force =     0.00031195    0.00037662    0.00395535

     Total force =     0.018676     Total SCF correction =     0.000849


     Computing stress (Cartesian axis) and pressure


     negative rho (up, down):  4.227E-05 0.000E+00
          total   stress  (Ry/bohr**3)                   (kbar)     P=      -14.97
  -0.00012380  -0.00000130   0.00000399          -18.21       -0.19        0.59
  -0.00000130  -0.00010626   0.00000616           -0.19      -15.63        0.91
   0.00000399   0.00000616  -0.00007525            0.59        0.91      -11.07


     BFGS Geometry Optimization
     Energy error            =      0.0E+00 Ry
     Gradient error          =      1.5E-02 Ry/Bohr

     number of scf cycles    =   1
     number of bfgs steps    =   0

     energy             new  =   -1011.3379937621 Ry

     new trust radius        =       0.0156067910 bohr
     new conv_thr            =       0.0000010000 Ry


ATOMIC_POSITIONS (angstrom)
Ag            5.7660618224        2.5153955037       17.1680862265
Ag            2.3499750820        0.2681348960       16.7531180629
Ag            3.1341494438        2.9442570256       15.9861123678
Ag            4.7631596829        0.6951732301       15.1664624446
Ag            5.5476229127        3.3714821728       14.3908593113    0   0   0
Ag            2.1295357173        1.1238273909       13.9694606075    0   0   0
Ag            2.9148439214        3.7996068932       13.1971188578    0   0   0
Ag            4.5426621600        1.5519521113       12.3778066694    0   0   0
Ag            5.3279703642        4.2277316135       11.6054649197    0   0   0
Ag            1.9098831687        1.9800768317       11.1840662159    0   0   0
Ag            2.6951913729        4.6558563339       10.4117244662    0   0   0
Ag            4.3230096115        2.4082015520        9.5924122778    0   0   0



     Writing config-only to output data dir ./Ag_111/Ag_111.save/
     NEW-OLD atomic charge density approx. for the potential

     negative rho (up, down):  4.253E-05 0.000E+00

     total cpu time spent up to now is       54.4 secs

     per-process dynamical memory:   218.3 Mb

     Self-consistent Calculation

     iteration #  1     ecut=    55.00 Ry     beta= 0.30
     Davidson diagonalization with overlap
     ethr =  1.00E-06,  avg # of iterations =  3.1

     Threshold (ethr) on eigenvalues was too large:
     Diagonalizing with lowered threshold

     Davidson diagonalization with overlap
     ethr =  5.32E-09,  avg # of iterations =  6.5

     negative rho (up, down):  4.241E-05 0.000E+00

     total cpu time spent up to now is       62.9 secs

     total energy              =   -1011.33833335 Ry
     estimated scf accuracy    <       0.00001035 Ry

     iteration #  2     ecut=    55.00 Ry     beta= 0.30
     Davidson diagonalization with overlap
     ethr =  7.84E-09,  avg # of iterations =  2.0

     negative rho (up, down):  4.239E-05 0.000E+00

     total cpu time spent up to now is       65.1 secs

     total energy              =   -1011.33833147 Ry
     estimated scf accuracy    <       0.00004795 Ry

     iteration #  3     ecut=    55.00 Ry     beta= 0.30
     Davidson diagonalization with overlap
     ethr =  7.84E-09,  avg # of iterations =  1.5

     negative rho (up, down):  4.236E-05 0.000E+00

     total cpu time spent up to now is       67.0 secs

     total energy              =   -1011.33833509 Ry
     estimated scf accuracy    <       0.00001034 Ry

     iteration #  4     ecut=    55.00 Ry     beta= 0.30
     Davidson diagonalization with overlap
     ethr =  7.83E-09,  avg # of iterations =  1.0

     negative rho (up, down):  4.233E-05 0.000E+00

     total cpu time spent up to now is       68.9 secs

     total energy              =   -1011.33833575 Ry
     estimated scf accuracy    <       0.00000143 Ry

     iteration #  5     ecut=    55.00 Ry     beta= 0.30
     Davidson diagonalization with overlap
     ethr =  1.09E-09,  avg # of iterations =  1.7

     negative rho (up, down):  4.228E-05 0.000E+00

     total cpu time spent up to now is       70.7 secs

     End of self-consistent calculation

          k = 0.0000 0.0000 0.0000 ( 31927 PWs)   bands (ev):

    -6.2148  -5.0949  -5.0288  -4.9446  -4.9047  -4.5995  -4.5213  -4.5068
    -4.4809  -4.4076  -4.3908  -4.3788  -4.2776  -4.2142  -4.1713  -4.1590
    -3.8612  -3.8358  -3.7864  -3.7398  -3.7052  -3.6596  -3.6094  -3.5868
    -3.5033  -3.4936  -3.4654  -3.4310  -3.4050  -3.3408  -3.2651  -3.2194
    -3.2080  -3.1882  -3.1571  -3.1347  -3.0203  -2.9827  -2.9770  -2.9576
    -2.9360  -2.7999  -2.7627  -2.7598  -2.6731  -2.6615  -2.5506  -2.5159
    -2.4439  -2.4243  -2.3059  -2.2055  -2.2019  -2.1835  -2.1271  -2.1068
    -2.0624  -2.0567  -2.0304  -2.0197  -1.9736  -1.9577  -1.2675   0.5815
     1.3741   2.3532   2.4215   2.5772   2.6583   3.4900   4.0150   4.0495
     4.4454   4.6903   4.9494   5.2903   5.4558   5.6071   5.6258

          k = 0.0000 0.1285 0.0000 ( 31864 PWs)   bands (ev):

    -6.1070  -5.0897  -5.0340  -4.9396  -4.7530  -4.6031  -4.5801  -4.5576
    -4.4843  -4.4702  -4.4115  -4.3035  -4.1718  -4.1573  -4.1215  -4.1042
    -3.9308  -3.8530  -3.7917  -3.7417  -3.7044  -3.6659  -3.6322  -3.6148
    -3.5662  -3.5404  -3.4708  -3.4508  -3.3727  -3.3359  -3.3025  -3.2535
    -3.2445  -3.2055  -3.1627  -3.1232  -3.0773  -2.9981  -2.9684  -2.9210
    -2.8529  -2.8190  -2.7724  -2.7266  -2.6964  -2.6337  -2.5767  -2.5041
    -2.4074  -2.3758  -2.3030  -2.2371  -2.2142  -2.1874  -2.1429  -2.1016
    -2.0926  -2.0583  -2.0201  -1.9934  -1.9353  -1.8830  -1.2013   0.4517
     0.6800   1.7490   2.0815   2.6065   2.7620   3.4631   3.7942   4.0737
     4.5403   4.9130   5.0546   5.5003   5.6293   5.6798   5.7711

          k = 0.0000 0.2570 0.0000 ( 31870 PWs)   bands (ev):

    -5.8001  -5.0869  -4.9478  -4.8237  -4.7581  -4.6945  -4.5593  -4.5263
    -4.4609  -4.4250  -4.3205  -4.2615  -4.2159  -4.1225  -4.0051  -3.9764
    -3.9547  -3.9098  -3.8444  -3.7870  -3.7542  -3.7242  -3.6692  -3.6487
    -3.6402  -3.5537  -3.5432  -3.4752  -3.4271  -3.3546  -3.3407  -3.2870
    -3.2518  -3.1838  -3.1269  -3.1063  -3.0390  -3.0081  -2.9624  -2.9479
    -2.8823  -2.8135  -2.8034  -2.7294  -2.6535  -2.6306  -2.4879  -2.4140
    -2.3634  -2.3447  -2.3164  -2.2506  -2.2216  -2.1829  -2.1266  -2.0907
    -2.0612  -2.0311  -2.0078  -1.9944  -1.9105  -1.9033  -1.0033  -0.7885
     0.4029   1.0498   1.7541   2.2965   2.7207   3.0585   3.4291   3.8886
     4.4686   4.8894   5.3383   5.4697   5.7434   6.0214   6.0505

          k = 0.0000 0.3855 0.0000 ( 31856 PWs)   bands (ev):

    -5.3616  -4.9864  -4.8974  -4.8666  -4.7329  -4.6419  -4.5517  -4.5203
    -4.4848  -4.3881  -4.3138  -4.2473  -4.1873  -4.1200  -4.0704  -3.9587
    -3.9141  -3.8753  -3.8316  -3.8027  -3.7773  -3.7653  -3.7244  -3.6765
    -3.6335  -3.5874  -3.5576  -3.4835  -3.4488  -3.4325  -3.3532  -3.3299
    -3.2589  -3.1968  -3.1524  -3.0893  -3.0627  -2.9778  -2.9265  -2.8909
    -2.8640  -2.7977  -2.7777  -2.6349  -2.5799  -2.5548  -2.4628  -2.3894
    -2.3706  -2.3068  -2.2908  -2.2789  -2.2167  -2.1592  -2.1397  -2.0936
    -2.0883  -2.0471  -2.0110  -1.9893  -1.9620  -1.8910  -1.8155  -0.7075
    -0.4718   1.1517   1.5291   1.6800   2.6859   2.9838   3.4433   3.6779
     3.8681   5.1337   5.3054   5.4082   5.6507   5.8359   6.3732

          k = 0.0000-0.5140 0.0000 ( 31844 PWs)   bands (ev):

    -4.9852  -4.9698  -4.9227  -4.8622  -4.7349  -4.6526  -4.5979  -4.5412
    -4.5174  -4.4108  -4.2676  -4.2226  -4.1815  -4.1250  -4.1050  -3.9701
    -3.9583  -3.8986  -3.7919  -3.7894  -3.7788  -3.7621  -3.6972  -3.6468
    -3.6374  -3.5498  -3.5380  -3.4854  -3.4633  -3.4448  -3.4280  -3.3562
    -3.2552  -3.2005  -3.1907  -3.0836  -3.0755  -3.0230  -2.9622  -2.8284
    -2.8087  -2.7851  -2.7128  -2.5670  -2.4896  -2.4438  -2.4410  -2.4112
    -2.3585  -2.3145  -2.3112  -2.3037  -2.2974  -2.2580  -2.2522  -2.1593
    -2.0946  -2.0364  -2.0348  -2.0014  -1.9680  -1.9544  -1.6585  -1.3976
     0.0680   0.4171   1.5739   2.0940   2.4196   2.7651   3.2472   3.7760
     4.0244   4.7676   5.3053   5.3204   5.6904   6.2749   6.4964

          k = 0.1254-0.0642 0.0000 ( 31889 PWs)   bands (ev):

    -6.0908  -5.0630  -5.0027  -4.9557  -4.8306  -4.7248  -4.6330  -4.6101
    -4.4934  -4.4322  -4.3743  -4.3314  -4.2679  -4.1667  -4.0680  -4.0281
    -3.9199  -3.8623  -3.8138  -3.7742  -3.7390  -3.6890  -3.6342  -3.5919
    -3.5096  -3.4973  -3.4657  -3.3703  -3.3440  -3.3120  -3.2853  -3.2292
    -3.2097  -3.1837  -3.1401  -3.0572  -3.0337  -2.9682  -2.9484  -2.8752
    -2.8682  -2.8073  -2.7645  -2.7513  -2.6686  -2.6556  -2.5759  -2.5020
    -2.4444  -2.4003  -2.2887  -2.2581  -2.2157  -2.1963  -2.1591  -2.1204
    -2.1039  -2.0554  -2.0320  -1.9693  -1.9519  -1.9151  -1.2219   0.6747
     1.2653   1.3999   2.1582   2.4232   2.6964   2.9544   3.5730   3.8421
     4.4886   4.5326   5.0578   5.2186   5.3013   5.6304   5.6845

          k = 0.1254 0.0643 0.0000 ( 31896 PWs)   bands (ev):

    -6.0907  -5.0682  -5.0061  -4.9533  -4.8189  -4.7214  -4.6374  -4.6230
    -4.4708  -4.4363  -4.3783  -4.2957  -4.2501  -4.1954  -4.1255  -4.0383
    -3.9460  -3.8586  -3.7874  -3.7665  -3.7129  -3.6693  -3.6473  -3.5893
    -3.5646  -3.4739  -3.4593  -3.3914  -3.3434  -3.3143  -3.2723  -3.2485
    -3.2074  -3.1544  -3.1358  -3.0823  -3.0214  -3.0075  -2.9074  -2.8916
    -2.8533  -2.8050  -2.7463  -2.7232  -2.6971  -2.6394  -2.5837  -2.4861
    -2.4350  -2.3973  -2.3175  -2.2427  -2.2187  -2.2134  -2.1825  -2.1258
    -2.0929  -2.0396  -2.0251  -2.0024  -1.9510  -1.8957  -1.2287   0.6623
     1.2793   1.4224   2.1529   2.4483   2.7069   2.9835   3.5705   3.7422
     4.4761   4.8678   4.9495   5.0935   5.2983   5.6170   5.7019

          k = 0.1254 0.1928 0.0000 ( 31885 PWs)   bands (ev):

    -5.8836  -5.0733  -4.9632  -4.8846  -4.7111  -4.6921  -4.6344  -4.6169
    -4.5796  -4.4356  -4.3912  -4.2950  -4.2425  -4.1160  -4.0891  -3.9607
    -3.9239  -3.8648  -3.8309  -3.7727  -3.7043  -3.6948  -3.6638  -3.6427
    -3.5762  -3.5417  -3.5080  -3.4472  -3.3641  -3.3390  -3.2679  -3.2511
    -3.2156  -3.1524  -3.1405  -3.0657  -3.0336  -3.0084  -2.9300  -2.9002
    -2.8755  -2.8117  -2.7552  -2.7239  -2.6558  -2.6416  -2.5400  -2.4568
    -2.4173  -2.3367  -2.3224  -2.2696  -2.2258  -2.1958  -2.1580  -2.1366
    -2.0679  -2.0364  -2.0120  -1.9804  -1.9214  -1.8819  -1.0788  -0.0135
     0.7804   0.9190   1.2898   2.4442   2.8054   2.9944   3.1835   4.2680
     4.2904   4.7830   5.2456   5.4030   5.7614   5.8411   5.9079

          k = 0.1254 0.3213 0.0000 ( 31860 PWs)   bands (ev):

    -5.5084  -5.0199  -4.8635  -4.8208  -4.7710  -4.6980  -4.6669  -4.6012
    -4.5084  -4.3984  -4.3360  -4.2575  -4.2099  -4.1450  -4.0120  -3.9914
    -3.9267  -3.8786  -3.8265  -3.8002  -3.7727  -3.7274  -3.7067  -3.6638
    -3.6294  -3.5892  -3.5200  -3.4361  -3.4292  -3.3760  -3.3012  -3.2829
    -3.2034  -3.1682  -3.0934  -3.0790  -3.0075  -2.9614  -2.9356  -2.9185
    -2.8705  -2.8160  -2.7760  -2.6731  -2.6323  -2.5531  -2.4708  -2.4349
    -2.3993  -2.3550  -2.3079  -2.2304  -2.2049  -2.1875  -2.1084  -2.1005
    -2.0799  -2.0684  -1.9942  -1.9772  -1.9660  -1.9053  -1.2362  -0.6651
    -0.0743   0.6008   1.3205   1.7967   2.1906   3.2583   3.6711   3.8468
     4.0371   5.0502   5.1509   5.6119   5.8788   6.0806   6.1597

          k = 0.1254-0.5782 0.0000 ( 31827 PWs)   bands (ev):

    -5.0880  -4.9050  -4.8770  -4.8435  -4.7850  -4.7176  -4.6231  -4.5368
    -4.4965  -4.4114  -4.3963  -4.2534  -4.1725  -4.1325  -4.0640  -3.9877
    -3.9578  -3.9246  -3.8291  -3.8127  -3.7717  -3.7319  -3.7025  -3.6471
    -3.5718  -3.5584  -3.5435  -3.4959  -3.4542  -3.4111  -3.4024  -3.2721
    -3.2073  -3.1755  -3.1213  -3.1071  -3.0188  -2.9799  -2.9196  -2.8379
    -2.8271  -2.7745  -2.7345  -2.5578  -2.5202  -2.4838  -2.4276  -2.4220
    -2.3998  -2.3306  -2.3076  -2.2693  -2.2663  -2.2363  -2.1437  -2.1205
    -2.1068  -2.0231  -2.0120  -1.9940  -1.9455  -1.9207  -1.7471  -1.0661
    -0.1289   0.4996   0.8275   1.7030   2.2014   2.9532   3.6092   3.8450
     4.0836   4.9454   5.2502   5.5134   6.0641   6.3109   6.6604

          k = 0.1254-0.4497 0.0000 ( 31830 PWs)   bands (ev):

    -5.0906  -4.8960  -4.8789  -4.8492  -4.7829  -4.7397  -4.6295  -4.5191
    -4.4726  -4.4330  -4.3368  -4.2640  -4.2301  -4.1150  -4.0723  -3.9842
    -3.9504  -3.9057  -3.8499  -3.7950  -3.7810  -3.7432  -3.7135  -3.6588
    -3.6050  -3.5398  -3.5235  -3.4796  -3.4360  -3.4120  -3.3457  -3.2993
    -3.2239  -3.1923  -3.1412  -3.1032  -3.0055  -2.9951  -2.9334  -2.8140
    -2.7946  -2.7479  -2.7347  -2.6240  -2.5397  -2.4761  -2.4352  -2.4312
    -2.3708  -2.3242  -2.2975  -2.2895  -2.2206  -2.2121  -2.1495  -2.1268
    -2.0897  -2.0522  -2.0453  -2.0000  -1.9451  -1.8817  -1.7817  -1.0620
    -0.1094   0.4202   0.8491   1.8267   2.0230   2.9731   3.7251   3.8822
     4.0736   4.8849   5.1568   5.5056   6.1727   6.2567   6.6480

          k = 0.1254-0.3212 0.0000 ( 31860 PWs)   bands (ev):

    -5.5103  -5.0141  -4.8553  -4.8282  -4.7885  -4.7355  -4.6195  -4.5814
    -4.5476  -4.4062  -4.2995  -4.2401  -4.1788  -4.1009  -4.0580  -3.9744
    -3.9664  -3.9270  -3.8611  -3.8096  -3.7842  -3.7121  -3.6934  -3.6538
    -3.6074  -3.5457  -3.4760  -3.4503  -3.4051  -3.3664  -3.3402  -3.2860
    -3.2157  -3.1668  -3.1457  -3.0452  -3.0237  -3.0107  -2.8868  -2.8681
    -2.8377  -2.8351  -2.7396  -2.7096  -2.6544  -2.5971  -2.4883  -2.3905
    -2.3800  -2.2939  -2.2850  -2.2715  -2.2249  -2.2175  -2.1628  -2.0900
    -2.0793  -2.0383  -2.0094  -2.0050  -1.9532  -1.8889  -1.2072  -0.6842
    -0.0966   0.5843   1.3564   1.6839   2.1634   3.3458   3.6606   3.7711
     4.2726   4.9595   5.0976   5.6515   5.6988   6.0041   6.1791

          k = 0.1254-0.1927 0.0000 ( 31876 PWs)   bands (ev):

    -5.8843  -5.0666  -4.9549  -4.8988  -4.7256  -4.6893  -4.6196  -4.6146
    -4.5946  -4.4771  -4.3853  -4.2847  -4.1735  -4.1418  -3.9980  -3.9878
    -3.9471  -3.8733  -3.8554  -3.7932  -3.7400  -3.7116  -3.6178  -3.6002
    -3.5807  -3.5206  -3.4948  -3.4062  -3.3826  -3.3527  -3.3110  -3.2090
    -3.1928  -3.1854  -3.1282  -3.0938  -3.0270  -2.9999  -2.9497  -2.9369
    -2.8503  -2.8018  -2.7704  -2.7232  -2.6634  -2.6531  -2.5318  -2.4824
    -2.4140  -2.3530  -2.3044  -2.2519  -2.2198  -2.1818  -2.1532  -2.1399
    -2.0815  -2.0521  -1.9996  -1.9784  -1.9155  -1.8848  -1.0629  -0.0307
     0.8417   0.8657   1.2409   2.3164   2.8613   3.0608   3.1190   4.2205
     4.4891   4.6805   5.2255   5.3060   5.7497   5.8834   5.9261

          k = 0.2508-0.1284 0.0000 ( 31864 PWs)   bands (ev):

    -5.7410  -5.0373  -4.9422  -4.9102  -4.8489  -4.7681  -4.7185  -4.6544
    -4.6167  -4.4691  -4.4058  -4.3542  -4.1796  -4.1446  -4.0511  -4.0075
    -3.9498  -3.8757  -3.8548  -3.7650  -3.7423  -3.6583  -3.5920  -3.5758
    -3.5234  -3.4551  -3.4212  -3.4157  -3.3706  -3.3307  -3.2656  -3.2038
    -3.1479  -3.1352  -3.1031  -3.0323  -2.9952  -2.9700  -2.9016  -2.8730
    -2.8342  -2.7586  -2.6878  -2.6578  -2.6219  -2.5761  -2.5657  -2.4935
    -2.4459  -2.3492  -2.3249  -2.2829  -2.2414  -2.2120  -2.1692  -2.1087
    -2.0777  -2.0413  -1.9876  -1.9500  -1.9432  -1.8942  -1.0219  -0.1167
     0.9030   1.0948   1.3785   1.6881   2.1541   2.8584   2.9586   3.3669
     3.9570   4.5640   4.9222   5.4005   5.4553   5.5420   6.0797

          k = 0.2508 0.0001 0.0000 ( 31848 PWs)   bands (ev):

    -5.8375  -5.0634  -4.9454  -4.9013  -4.8452  -4.8339  -4.7796  -4.6975
    -4.5771  -4.4304  -4.3280  -4.2793  -4.1910  -4.1268  -4.0759  -3.9932
    -3.9737  -3.9467  -3.8944  -3.8245  -3.7102  -3.6276  -3.6073  -3.5565
    -3.5265  -3.4785  -3.4353  -3.4066  -3.3871  -3.3190  -3.2960  -3.1981
    -3.1496  -3.1219  -3.0704  -3.0340  -2.9991  -2.9295  -2.9049  -2.8513
    -2.7845  -2.7523  -2.7072  -2.6611  -2.6237  -2.5714  -2.5320  -2.4847
    -2.4330  -2.3768  -2.3432  -2.2930  -2.2189  -2.1970  -2.1736  -2.1565
    -2.1010  -2.0843  -2.0174  -1.9711  -1.9072  -1.8866  -1.1183   0.5908
     0.6600   0.9140   1.9063   2.1607   2.3168   2.8428   2.9999   3.3269
     4.0024   4.2392   4.6881   5.0375   5.3152   5.6459   5.8632

          k = 0.2508 0.1286 0.0000 ( 31864 PWs)   bands (ev):

    -5.7402  -5.0333  -4.9468  -4.9183  -4.8365  -4.7724  -4.7204  -4.6912
    -4.5202  -4.4900  -4.4090  -4.3544  -4.1829  -4.1392  -4.1006  -3.9991
    -3.9810  -3.9090  -3.8820  -3.7567  -3.7434  -3.6511  -3.5939  -3.5614
    -3.5105  -3.4769  -3.4253  -3.3961  -3.3739  -3.3119  -3.2910  -3.1990
    -3.1770  -3.1283  -3.0707  -3.0452  -2.9989  -2.9786  -2.9015  -2.8562
    -2.7897  -2.7232  -2.6876  -2.6573  -2.6256  -2.5869  -2.5667  -2.4670
    -2.4260  -2.3875  -2.3261  -2.2886  -2.2350  -2.1874  -2.1830  -2.1355
    -2.0962  -2.0318  -1.9849  -1.9708  -1.9554  -1.8795  -1.0387  -0.0954
     0.9240   1.1155   1.4659   1.6705   2.2224   2.8053   2.9640   3.2645
     3.9422   4.7593   5.0713   5.3265   5.3827   5.6415   5.9230

          k = 0.2508 0.2571 0.0000 ( 31870 PWs)   bands (ev):

    -5.4698  -4.9823  -4.9099  -4.8772  -4.8052  -4.7073  -4.6964  -4.6815
    -4.6297  -4.4590  -4.4147  -4.3140  -4.1965  -4.1662  -4.1083  -4.0318
    -3.9895  -3.8475  -3.8217  -3.7897  -3.7535  -3.7066  -3.6455  -3.5903
    -3.5511  -3.5108  -3.4925  -3.3845  -3.3728  -3.2743  -3.2354  -3.2045
    -3.1663  -3.1474  -3.1152  -3.0228  -2.9885  -2.9495  -2.8889  -2.8339
    -2.8020  -2.7590  -2.7224  -2.6874  -2.6053  -2.5689  -2.5261  -2.4788
    -2.3896  -2.3354  -2.3059  -2.2625  -2.2030  -2.1633  -2.1496  -2.1297
    -2.0805  -2.0420  -2.0271  -1.9692  -1.9451  -1.9034  -0.7993  -0.5127
    -0.1843   0.7898   0.8910   1.4747   2.5985   2.6647   2.9814   3.1486
     4.1179   4.7783   5.2748   5.4519   5.7779   6.1763   6.2901

          k = 0.2508-0.6425 0.0000 ( 31850 PWs)   bands (ev):

    -5.1266  -4.9488  -4.8826  -4.8283  -4.8002  -4.7494  -4.6666  -4.6091
    -4.5567  -4.4324  -4.3884  -4.2878  -4.2329  -4.1744  -4.0610  -4.0206
    -3.9920  -3.9332  -3.8811  -3.8351  -3.7495  -3.7311  -3.6596  -3.6362
    -3.5939  -3.5843  -3.4902  -3.4459  -3.3811  -3.3310  -3.2810  -3.2104
    -3.1926  -3.1161  -3.1043  -3.0268  -2.9544  -2.9214  -2.8560  -2.8044
    -2.7849  -2.7277  -2.6908  -2.5674  -2.5390  -2.5207  -2.4412  -2.4274
    -2.4151  -2.3791  -2.3039  -2.2826  -2.2325  -2.1918  -2.1394  -2.0998
    -2.0751  -2.0186  -2.0140  -1.9493  -1.9374  -1.8254  -1.2982  -0.7386
    -0.3597  -0.1664   0.6788   1.5447   1.9157   2.4679   3.3839   3.6341
     4.3929   4.7873   5.6042   5.8531   6.0300   6.2701   6.5030

          k = 0.2508-0.5140 0.0000 ( 31773 PWs)   bands (ev):

    -4.9949  -4.9910  -4.8287  -4.7634  -4.7411  -4.6851  -4.6576  -4.6495
    -4.5641  -4.4158  -4.3035  -4.2885  -4.2358  -4.1541  -4.0965  -4.0750
    -4.0187  -3.9827  -3.9350  -3.8333  -3.7816  -3.7591  -3.6754  -3.6648
    -3.5604  -3.4997  -3.4752  -3.4269  -3.3985  -3.3489  -3.2911  -3.2348
    -3.2111  -3.1529  -3.0974  -3.0608  -2.9796  -2.9263  -2.8884  -2.8276
    -2.7643  -2.6831  -2.6062  -2.5664  -2.5085  -2.4758  -2.4440  -2.3872
    -2.3441  -2.3177  -2.2857  -2.2682  -2.2169  -2.1763  -2.1384  -2.0952
    -2.0725  -2.0352  -1.9897  -1.9831  -1.9312  -1.8909  -1.4117  -1.1109
    -0.7502   0.2552   0.5167   0.9236   2.3291   2.5128   2.8681   3.8358
     4.4884   5.3331   5.6951   6.0898   6.3844   6.5794   6.6418

          k = 0.2508-0.3854 0.0000 ( 31842 PWs)   bands (ev):

    -5.1310  -4.9516  -4.8675  -4.8524  -4.7955  -4.7578  -4.6883  -4.6113
    -4.5179  -4.4413  -4.3708  -4.2802  -4.1917  -4.1702  -4.0910  -4.0256
    -3.9908  -3.8917  -3.8697  -3.8228  -3.7598  -3.7455  -3.7120  -3.6627
    -3.6605  -3.5235  -3.4417  -3.4059  -3.3774  -3.3377  -3.2846  -3.2282
    -3.1648  -3.1287  -3.1063  -3.0160  -2.9782  -2.9234  -2.8687  -2.8347
    -2.7624  -2.7112  -2.6469  -2.6045  -2.5698  -2.5302  -2.4995  -2.3880
    -2.3704  -2.3303  -2.2931  -2.2701  -2.2292  -2.1975  -2.1294  -2.1130
    -2.0675  -2.0410  -2.0026  -1.9776  -1.9026  -1.8737  -1.3018  -0.7402
    -0.3613  -0.2210   0.5983   1.5284   1.9022   2.5325   3.4153   3.8873
     4.3920   4.4322   5.4251   5.7713   6.1762   6.2275   6.6191

          k = 0.2508-0.2569 0.0000 ( 31875 PWs)   bands (ev):

    -5.4726  -4.9701  -4.9380  -4.8728  -4.7897  -4.7243  -4.6907  -4.6682
    -4.6600  -4.4789  -4.3893  -4.2806  -4.1866  -4.1356  -4.1309  -4.0413
    -3.9074  -3.8949  -3.8255  -3.7902  -3.7824  -3.6750  -3.6355  -3.6208
    -3.5223  -3.4722  -3.4570  -3.3891  -3.3707  -3.3403  -3.2635  -3.1877
    -3.1800  -3.1360  -3.0887  -3.0354  -3.0034  -2.9309  -2.8754  -2.8558
    -2.8186  -2.7749  -2.6891  -2.6841  -2.6175  -2.5908  -2.5214  -2.4469
    -2.3551  -2.3366  -2.3246  -2.3008  -2.2244  -2.1841  -2.1700  -2.1005
    -2.0771  -2.0364  -1.9965  -1.9813  -1.9482  -1.8796  -0.7392  -0.5752
    -0.2161   0.5835   1.0548   1.3790   2.3114   2.8667   3.0105   3.5001
     4.0830   4.3714   5.2691   5.4870   5.7200   6.0461   6.3854

          k = 0.3762-0.1926 0.0000 ( 31840 PWs)   bands (ev):

    -5.2620  -5.0533  -4.9874  -4.8916  -4.8443  -4.8178  -4.6707  -4.6272
    -4.5728  -4.4758  -4.3930  -4.3607  -4.2605  -4.2075  -4.1538  -4.0497
    -3.9763  -3.8599  -3.8183  -3.7860  -3.7673  -3.6583  -3.6155  -3.5528
    -3.5077  -3.4704  -3.4163  -3.3933  -3.3696  -3.2763  -3.2643  -3.2168
    -3.1234  -3.0790  -3.0703  -3.0252  -3.0076  -2.8994  -2.8514  -2.7951
    -2.7741  -2.7195  -2.6637  -2.6358  -2.6059  -2.5449  -2.4920  -2.4216
    -2.3673  -2.3446  -2.3001  -2.2057  -2.2003  -2.1623  -2.1288  -2.0638
    -2.0396  -2.0104  -1.9892  -1.9427  -1.9158  -1.9053  -1.3690  -0.5124
    -0.1498   0.9914   1.2433   1.5285   1.6407   1.9964   2.5865   3.5288
     3.6177   3.8490   4.8452   5.5695   5.9162   5.9933   6.4525

          k = 0.3762-0.0641 0.0000 ( 31882 PWs)   bands (ev):

    -5.4053  -5.0996  -5.0025  -4.9418  -4.8594  -4.7669  -4.6934  -4.6667
    -4.5888  -4.4452  -4.3246  -4.2870  -4.2141  -4.1609  -4.1312  -4.0663
    -4.0341  -3.8878  -3.8059  -3.7919  -3.7265  -3.6883  -3.6192  -3.5740
    -3.5387  -3.5179  -3.4442  -3.4255  -3.3620  -3.3032  -3.2575  -3.1913
    -3.1459  -3.1203  -3.0631  -3.0114  -2.9779  -2.9286  -2.9060  -2.8566
    -2.7460  -2.6867  -2.6302  -2.5952  -2.5812  -2.5238  -2.4584  -2.4383
    -2.3586  -2.3156  -2.2968  -2.2773  -2.2043  -2.1533  -2.1309  -2.0903
    -2.0514  -2.0380  -2.0004  -1.9614  -1.9152  -1.8945  -0.7787  -0.7139
     0.1448   0.4266   1.2756   1.5656   2.1434   2.4976   2.8812   3.4487
     3.7114   4.0023   4.5804   5.3961   5.6020   5.7897   5.8564

          k = 0.3762 0.0644 0.0000 ( 31884 PWs)   bands (ev):

    -5.4056  -5.0864  -5.0132  -4.9373  -4.8613  -4.7798  -4.6905  -4.6828
    -4.5338  -4.4349  -4.3701  -4.2677  -4.2020  -4.1765  -4.1419  -4.0681
    -4.0375  -3.9431  -3.8402  -3.7668  -3.7350  -3.6666  -3.6235  -3.6108
    -3.5107  -3.4905  -3.4547  -3.4113  -3.3668  -3.3138  -3.2507  -3.1672
    -3.1401  -3.1022  -3.0851  -3.0124  -2.9899  -2.9583  -2.8792  -2.8606
    -2.7372  -2.6879  -2.6425  -2.5980  -2.5409  -2.5222  -2.4481  -2.4258
    -2.3526  -2.3437  -2.3085  -2.2366  -2.2091  -2.1625  -2.1218  -2.1134
    -2.0783  -2.0243  -2.0067  -1.9770  -1.9146  -1.8967  -0.8505  -0.6174
     0.1247   0.5382   1.2701   1.4701   2.2790   2.5232   2.8238   3.2536
     3.5859   4.4766   4.6161   5.2580   5.6226   5.7448   5.8531

          k = 0.3762 0.1929 0.0000 ( 31850 PWs)   bands (ev):

    -5.2617  -5.0315  -4.9895  -4.8836  -4.8587  -4.8274  -4.6681  -4.6424
    -4.5213  -4.4417  -4.4225  -4.3931  -4.2596  -4.1993  -4.1158  -4.0975
    -4.0559  -3.9209  -3.8318  -3.8018  -3.7307  -3.6861  -3.6085  -3.5501
    -3.5428  -3.4515  -3.4202  -3.3707  -3.3029  -3.2693  -3.2506  -3.1951
    -3.1590  -3.1056  -3.0544  -3.0192  -2.9743  -2.9112  -2.8898  -2.7769
    -2.7564  -2.7240  -2.6943  -2.6446  -2.5482  -2.5283  -2.4831  -2.4559
    -2.3837  -2.3597  -2.2568  -2.2199  -2.1941  -2.1319  -2.1040  -2.0938
    -2.0584  -2.0306  -1.9972  -1.9673  -1.9422  -1.9021  -1.3381  -0.5626
     0.0571   1.0372   1.2329   1.4623   1.7638   2.1451   2.4206   2.9395
     3.7337   4.4781   4.8813   5.5570   5.9812   6.1208   6.3177

          k = 0.3762-0.7067 0.0000 ( 31862 PWs)   bands (ev):

    -5.0629  -5.0256  -4.9615  -4.8995  -4.8124  -4.7524  -4.6528  -4.6077
    -4.5296  -4.4659  -4.3883  -4.3426  -4.2740  -4.2544  -4.1439  -4.0915
    -4.0267  -3.9241  -3.8281  -3.7985  -3.7631  -3.7257  -3.6415  -3.6029
    -3.5990  -3.4962  -3.4613  -3.3694  -3.3429  -3.3181  -3.2195  -3.2121
    -3.1476  -3.1027  -3.0439  -3.0279  -2.9141  -2.8503  -2.8259  -2.7734
    -2.7418  -2.7090  -2.6658  -2.5914  -2.5619  -2.5055  -2.4887  -2.4181
    -2.3937  -2.3171  -2.2502  -2.2471  -2.1821  -2.1611  -2.1248  -2.1022
    -2.0605  -2.0156  -1.9888  -1.9641  -1.9231  -1.7950  -1.5213  -0.5059
    -0.3291   0.1547   0.7108   1.4274   1.9707   2.4016   2.7117   2.8374
     3.8862   4.5058   4.9717   5.8119   6.0574   6.1858   6.5217

          k = 0.3762-0.5782 0.0000 ( 31805 PWs)   bands (ev):

    -5.0837  -5.0583  -4.9019  -4.8245  -4.7246  -4.6966  -4.6481  -4.5010
    -4.4674  -4.4237  -4.3902  -4.3071  -4.2564  -4.2040  -4.1544  -4.1367
    -4.0466  -3.9872  -3.9402  -3.9020  -3.7389  -3.7005  -3.6687  -3.5993
    -3.5802  -3.5757  -3.4605  -3.4164  -3.3891  -3.3045  -3.2641  -3.1888
    -3.1689  -3.1388  -3.0541  -3.0041  -2.9543  -2.9268  -2.8737  -2.7904
    -2.7265  -2.6600  -2.5795  -2.5415  -2.4798  -2.4542  -2.4442  -2.4091
    -2.3333  -2.3047  -2.2369  -2.2152  -2.1598  -2.1270  -2.0960  -2.0796
    -2.0512  -2.0162  -1.9736  -1.9671  -1.9099  -1.6848  -1.3203  -1.1877
    -0.5663  -0.3043   0.5525   1.3063   1.5235   2.4984   2.8430   3.5933
     4.2871   4.5696   5.5099   5.8636   6.1732   6.3397   6.5904

          k = 0.3762-0.4497 0.0000 ( 31825 PWs)   bands (ev):

    -5.0832  -5.0637  -4.8953  -4.8257  -4.7450  -4.7039  -4.6281  -4.5245
    -4.4854  -4.4203  -4.3648  -4.2678  -4.2530  -4.1858  -4.1771  -4.1457
    -4.0376  -4.0215  -3.8845  -3.8196  -3.7730  -3.7151  -3.6731  -3.6439
    -3.6323  -3.5392  -3.4905  -3.4130  -3.3306  -3.3054  -3.2576  -3.2253
    -3.1669  -3.0884  -3.0516  -3.0199  -2.9857  -2.9177  -2.8632  -2.7929
    -2.7494  -2.6623  -2.5787  -2.5674  -2.5045  -2.4416  -2.4023  -2.3749
    -2.3459  -2.2827  -2.2667  -2.2030  -2.1755  -2.1346  -2.0918  -2.0770
    -2.0617  -1.9958  -1.9886  -1.9165  -1.8905  -1.6993  -1.3026  -1.2179
    -0.7297  -0.1823   0.4742   1.1411   1.7168   2.5322   2.9061   3.6233
     4.2541   4.3899   5.2971   5.9603   6.1862   6.5661   6.6324

          k = 0.3762-0.3212 0.0000 ( 31851 PWs)   bands (ev):

    -5.0695  -5.0334  -4.9535  -4.8976  -4.8305  -4.7744  -4.6525  -4.5571
    -4.5253  -4.4985  -4.4365  -4.3136  -4.2685  -4.1852  -4.1584  -4.0804
    -3.9827  -3.8689  -3.8202  -3.8048  -3.7713  -3.7149  -3.6561  -3.6498
    -3.6174  -3.4528  -3.4327  -3.3854  -3.3469  -3.3030  -3.2584  -3.2279
    -3.1560  -3.0874  -3.0571  -2.9962  -2.9629  -2.8962  -2.8278  -2.7828
    -2.7065  -2.6947  -2.6486  -2.6163  -2.5564  -2.5039  -2.4562  -2.4121
    -2.3762  -2.2927  -2.2539  -2.2413  -2.2071  -2.1527  -2.1330  -2.1133
    -2.0377  -2.0237  -2.0176  -1.9377  -1.8975  -1.7288  -1.6239  -0.5242
    -0.2972  -0.0762   0.7200   1.3574   1.9696   2.4222   2.7382   3.3173
     3.8807   3.9263   4.8685   5.6086   6.1494   6.3998   6.5733

          k =-0.5016 0.2569 0.0000 ( 31850 PWs)   bands (ev):

    -5.0537  -5.0405  -4.9665  -4.8921  -4.8820  -4.7444  -4.7188  -4.5463
    -4.5376  -4.4398  -4.4080  -4.3599  -4.3289  -4.2911  -4.1461  -4.0177
    -4.0033  -3.9543  -3.7947  -3.7836  -3.7311  -3.6807  -3.6757  -3.6287
    -3.5417  -3.4351  -3.3691  -3.3482  -3.3433  -3.2964  -3.2846  -3.1908
    -3.1650  -3.1050  -3.0426  -2.9778  -2.9590  -2.9269  -2.8186  -2.7790
    -2.7599  -2.6645  -2.6578  -2.5891  -2.5565  -2.5180  -2.4697  -2.4369
    -2.3344  -2.2857  -2.2203  -2.1928  -2.1675  -2.1578  -2.1198  -2.0779
    -2.0424  -2.0173  -2.0095  -1.9908  -1.9121  -1.9048  -1.3003  -1.2110
     0.1272   0.6414   1.0780   1.0791   1.7392   2.0757   2.4802   3.0104
     3.6825   3.7974   4.8848   5.1706   6.4146   6.4594   6.5860

          k =-0.5016 0.3854 0.0000 ( 31842 PWs)   bands (ev):

    -5.1187  -5.0332  -4.9869  -4.9200  -4.8698  -4.7298  -4.5921  -4.5698
    -4.5524  -4.4296  -4.4222  -4.3251  -4.2593  -4.2245  -4.1568  -4.0875
    -4.0058  -3.9500  -3.8149  -3.7583  -3.7419  -3.7201  -3.6753  -3.6351
    -3.5915  -3.4949  -3.4672  -3.3726  -3.3216  -3.2829  -3.2655  -3.2286
    -3.1223  -3.1005  -3.0466  -3.0087  -2.9695  -2.8975  -2.8607  -2.7934
    -2.7359  -2.6430  -2.6399  -2.6115  -2.5472  -2.4971  -2.4441  -2.3749
    -2.3401  -2.2898  -2.2680  -2.2166  -2.1581  -2.1275  -2.0898  -2.0593
    -2.0375  -2.0104  -2.0052  -1.9501  -1.9041  -1.7485  -1.4623  -0.8263
    -0.2705   0.1368   0.9292   1.0384   2.0769   2.3737   2.6334   3.2063
     3.7191   3.9057   4.8151   5.7922   6.0891   6.2680   6.2874

          k =-0.5016 0.5139 0.0000 ( 31845 PWs)   bands (ev):

    -5.1231  -5.1126  -4.9440  -4.9251  -4.9115  -4.6322  -4.6170  -4.5864
    -4.5028  -4.4221  -4.3123  -4.2881  -4.2647  -4.2055  -4.1958  -4.0942
    -4.0404  -3.9533  -3.8902  -3.8606  -3.7785  -3.6942  -3.6282  -3.6014
    -3.5659  -3.5355  -3.4752  -3.4015  -3.3588  -3.3201  -3.2490  -3.1783
    -3.1498  -3.1072  -3.0690  -3.0435  -3.0077  -2.9295  -2.8464  -2.8379
    -2.7623  -2.6295  -2.6091  -2.5841  -2.5186  -2.4696  -2.3842  -2.3747
    -2.2911  -2.2695  -2.2355  -2.1949  -2.1667  -2.1464  -2.0769  -2.0612
    -2.0391  -2.0274  -2.0032  -1.9709  -1.9322  -1.5380  -1.1695  -1.0853
    -0.3110  -0.0461   0.3275   1.5429   1.9567   2.0128   3.1745   3.6690
     4.0364   4.3510   4.5020   5.5745   5.6840   6.1141   6.2519

          k =-0.5016 0.6424 0.0000 ( 31851 PWs)   bands (ev):

    -5.1182  -5.0224  -4.9917  -4.9105  -4.8724  -4.7180  -4.6183  -4.5813
    -4.4846  -4.4761  -4.3666  -4.3300  -4.2940  -4.2238  -4.1643  -4.1290
    -4.0332  -3.9367  -3.9079  -3.8115  -3.7140  -3.7110  -3.6399  -3.6297
    -3.5905  -3.5244  -3.4173  -3.3596  -3.2989  -3.2749  -3.2494  -3.1997
    -3.1496  -3.1191  -3.0758  -3.0159  -2.9280  -2.9020  -2.8571  -2.7981
    -2.7616  -2.6772  -2.6095  -2.5939  -2.4933  -2.4604  -2.4438  -2.4282
    -2.3717  -2.2985  -2.2440  -2.1901  -2.1570  -2.1274  -2.1009  -2.0859
    -2.0717  -2.0230  -1.9865  -1.9586  -1.9382  -1.7762  -1.4158  -0.7844
    -0.1774   0.2152   0.8312   1.1751   2.0359   2.3504   2.6550   2.8157
     3.7475   4.3973   4.9713   5.8228   5.8879   6.1967   6.2878

          k =-0.5016-0.2572 0.0000 ( 31840 PWs)   bands (ev):

    -5.0465  -5.0354  -4.9678  -4.9088  -4.8404  -4.7613  -4.6988  -4.5770
    -4.5310  -4.4538  -4.3927  -4.3367  -4.2998  -4.2661  -4.1649  -4.1486
    -4.0634  -3.9633  -3.8447  -3.7605  -3.7355  -3.7025  -3.6525  -3.6219
[...]
    -0.3399   0.1481   0.6881   1.4153   2.0023   2.3924   2.7051   2.8762
     3.8843   4.5530   4.9898   5.8352   6.0872   6.2094   6.5366

          k = 0.3762-0.5782 0.0000 ( 31805 PWs)   bands (ev):

    -5.0957  -5.0664  -4.9154  -4.8324  -4.7473  -4.7160  -4.6582  -4.5373
    -4.5006  -4.4434  -4.4053  -4.3361  -4.2760  -4.2301  -4.1871  -4.1545
    -4.0582  -4.0328  -3.9678  -3.9276  -3.7746  -3.7225  -3.7021  -3.6250
    -3.6161  -3.5888  -3.5133  -3.4469  -3.4027  -3.3313  -3.2820  -3.2043
    -3.1823  -3.1587  -3.0666  -3.0288  -2.9715  -2.9506  -2.9023  -2.8076
    -2.7353  -2.6738  -2.5854  -2.5603  -2.4815  -2.4679  -2.4510  -2.4025
    -2.3381  -2.3121  -2.2527  -2.2182  -2.1616  -2.1257  -2.1008  -2.0832
    -2.0501  -2.0155  -1.9783  -1.9561  -1.9081  -1.6883  -1.3314  -1.2013
    -0.5888  -0.3317   0.5568   1.2874   1.5168   2.5395   2.8761   3.6217
     4.2900   4.6228   5.5155   5.8730   6.1843   6.3717   6.6269

          k = 0.3762-0.4497 0.0000 ( 31825 PWs)   bands (ev):

    -5.0987  -5.0697  -4.9072  -4.8350  -4.7737  -4.7139  -4.6492  -4.5458
    -4.5058  -4.4558  -4.3801  -4.2938  -4.2770  -4.2178  -4.1894  -4.1683
    -4.0711  -4.0390  -3.9115  -3.8576  -3.7986  -3.7551  -3.7021  -3.6777
    -3.6416  -3.5686  -3.5193  -3.4363  -3.3629  -3.3328  -3.2776  -3.2448
    -3.1763  -3.1168  -3.0712  -3.0444  -3.0013  -2.9450  -2.8751  -2.8087
    -2.7558  -2.6737  -2.5982  -2.5843  -2.4997  -2.4565  -2.4132  -2.3795
    -2.3472  -2.3083  -2.2656  -2.2116  -2.1779  -2.1353  -2.0980  -2.0780
    -2.0491  -1.9990  -1.9874  -1.9188  -1.8919  -1.7023  -1.3123  -1.2394
    -0.7440  -0.2117   0.4765   1.1469   1.6959   2.5646   2.9596   3.6471
     4.2624   4.4324   5.3101   5.9679   6.1949   6.5847   6.6671

          k = 0.3762-0.3212 0.0000 ( 31851 PWs)   bands (ev):

    -5.0789  -5.0469  -4.9715  -4.9068  -4.8449  -4.7915  -4.6601  -4.5912
    -4.5421  -4.5234  -4.4483  -4.3250  -4.3147  -4.2162  -4.1913  -4.1042
    -4.0164  -3.9053  -3.8479  -3.8339  -3.8011  -3.7488  -3.6913  -3.6761
    -3.6376  -3.4791  -3.4423  -3.4045  -3.3594  -3.3189  -3.2903  -3.2528
    -3.1799  -3.1134  -3.0907  -2.9985  -2.9748  -2.9130  -2.8430  -2.8051
    -2.7234  -2.7068  -2.6650  -2.6211  -2.5728  -2.5017  -2.4743  -2.4319
    -2.3779  -2.3064  -2.2662  -2.2511  -2.2103  -2.1542  -2.1361  -2.1061
    -2.0412  -2.0268  -2.0044  -1.9415  -1.8952  -1.7494  -1.6280  -0.5491
    -0.3005  -0.0714   0.7002   1.3586   2.0053   2.4217   2.7231   3.3610
     3.8806   3.9734   4.8896   5.6349   6.1721   6.4074   6.5798

          k =-0.5016 0.2569 0.0000 ( 31850 PWs)   bands (ev):

    -5.0755  -5.0429  -4.9773  -4.9168  -4.8875  -4.7585  -4.7317  -4.5987
    -4.5433  -4.4593  -4.4107  -4.3853  -4.3563  -4.3242  -4.1835  -4.0592
    -4.0247  -3.9937  -3.8270  -3.8143  -3.7761  -3.7191  -3.6769  -3.6480
    -3.5745  -3.4598  -3.4006  -3.3833  -3.3525  -3.3122  -3.2982  -3.2092
    -3.1860  -3.1251  -3.0847  -2.9894  -2.9671  -2.9346  -2.8418  -2.7917
    -2.7739  -2.6912  -2.6714  -2.6006  -2.5682  -2.5367  -2.4729  -2.4297
    -2.3490  -2.3031  -2.2312  -2.1902  -2.1767  -2.1548  -2.1334  -2.0708
    -2.0457  -2.0251  -2.0022  -1.9628  -1.9120  -1.9051  -1.3214  -1.2385
     0.1229   0.6479   1.0686   1.0776   1.7387   2.1071   2.4414   3.0536
     3.6739   3.8616   4.8900   5.2001   6.4185   6.4889   6.6130

          k =-0.5016 0.3854 0.0000 ( 31842 PWs)   bands (ev):

    -5.1313  -5.0442  -5.0002  -4.9344  -4.8825  -4.7440  -4.6220  -4.5984
    -4.5664  -4.4573  -4.4401  -4.3393  -4.2884  -4.2503  -4.1962  -4.1228
    -4.0178  -3.9815  -3.8495  -3.7938  -3.7781  -3.7514  -3.7003  -3.6546
    -3.6026  -3.5368  -3.4856  -3.4007  -3.3670  -3.2971  -3.2834  -3.2477
    -3.1457  -3.1217  -3.0682  -3.0304  -2.9897  -2.9217  -2.8752  -2.8001
    -2.7436  -2.6664  -2.6464  -2.6259  -2.5534  -2.4984  -2.4562  -2.3801
    -2.3467  -2.2964  -2.2850  -2.2138  -2.1607  -2.1250  -2.0915  -2.0624
    -2.0394  -2.0149  -1.9747  -1.9488  -1.9080  -1.7532  -1.4855  -0.8543
    -0.2695   0.1286   0.9219   1.0268   2.1051   2.3783   2.6285   3.2400
     3.7250   3.9418   4.8434   5.8174   6.0864   6.2678   6.3137

          k =-0.5016 0.5139 0.0000 ( 31845 PWs)   bands (ev):

    -5.1369  -5.1199  -4.9702  -4.9355  -4.9156  -4.6578  -4.6343  -4.6013
    -4.5336  -4.4586  -4.3454  -4.3224  -4.2850  -4.2281  -4.2047  -4.1171
    -4.0562  -3.9793  -3.9447  -3.8749  -3.8158  -3.7254  -3.6667  -3.6321
    -3.5829  -3.5524  -3.5061  -3.4403  -3.3910  -3.3547  -3.2706  -3.2160
    -3.1603  -3.1228  -3.0881  -3.0604  -3.0095  -2.9475  -2.8859  -2.8393
    -2.7724  -2.6450  -2.6255  -2.5836  -2.5226  -2.4769  -2.3983  -2.3683
    -2.2960  -2.2818  -2.2430  -2.1947  -2.1728  -2.1411  -2.0755  -2.0603
    -2.0370  -2.0225  -1.9952  -1.9655  -1.9300  -1.5605  -1.1724  -1.0907
    -0.3345  -0.0672   0.3127   1.5341   1.9489   2.0473   3.2149   3.7026
     4.0330   4.3535   4.5379   5.5721   5.6888   6.1359   6.2749

          k =-0.5016 0.6424 0.0000 ( 31851 PWs)   bands (ev):

    -5.1283  -5.0318  -5.0059  -4.9288  -4.8804  -4.7350  -4.6318  -4.6002
    -4.5228  -4.4946  -4.4099  -4.3610  -4.3151  -4.2507  -4.1883  -4.1528
    -4.0640  -3.9771  -3.9386  -3.8468  -3.7670  -3.7345  -3.6810  -3.6436
    -3.6103  -3.5611  -3.4384  -3.3855  -3.3171  -3.2913  -3.2598  -3.2286
    -3.1781  -3.1399  -3.0945  -3.0279  -2.9512  -2.9072  -2.8762  -2.8252
    -2.7683  -2.6975  -2.6194  -2.6022  -2.4988  -2.4702  -2.4412  -2.4259
    -2.3709  -2.3077  -2.2465  -2.1985  -2.1552  -2.1289  -2.1118  -2.0859
    -2.0577  -2.0173  -1.9806  -1.9549  -1.9383  -1.7735  -1.4325  -0.8107
    -0.1874   0.2077   0.8126   1.1564   2.0675   2.3566   2.6444   2.8444
     3.7454   4.4458   4.9936   5.8360   5.9092   6.2064   6.3068

          k =-0.5016-0.2572 0.0000 ( 31840 PWs)   bands (ev):

    -5.0552  -5.0459  -4.9819  -4.9190  -4.8534  -4.7890  -4.7030  -4.5839
    -4.5652  -4.4793  -4.4372  -4.3584  -4.3329  -4.2899  -4.1936  -4.1754
    -4.1063  -4.0026  -3.8874  -3.8134  -3.7916  -3.7287  -3.6588  -3.6552
    -3.5178  -3.4915  -3.4626  -3.3582  -3.3204  -3.3067  -3.2443  -3.1917
    -3.1601  -3.1111  -3.0792  -2.9916  -2.9587  -2.8802  -2.8181  -2.8013
    -2.7836  -2.7309  -2.7179  -2.6282  -2.5310  -2.5189  -2.4450  -2.4216
    -2.3762  -2.2713  -2.2486  -2.2413  -2.1832  -2.1260  -2.1189  -2.0882
    -2.0659  -2.0254  -1.9823  -1.9651  -1.9437  -1.9308  -1.3452  -1.0955
     0.2902   0.6716   1.0706   1.1081   1.7876   2.1515   2.3127   2.6129
     3.6096   4.4669   4.8087   5.7160   6.0204   6.4372   6.6336

     the Fermi energy is     0.9556 ev

!    total energy              =   -1011.34050329 Ry
     estimated scf accuracy    <          1.3E-09 Ry
     smearing contrib. (-TS)   =      -0.00056257 Ry
     internal energy E=F+TS    =   -1011.33994071 Ry

     The total energy is F=E-TS. E is the sum of the following terms:
     one-electron contribution =  -10390.27635172 Ry
     hartree contribution      =    5285.58818882 Ry
     xc contribution           =    -267.77336439 Ry
     ewald contribution        =    4361.41718879 Ry
     DFT-D3 Dispersion         =      -0.29560221 Ry

     convergence has been achieved in   7 iterations

     negative rho (up, down):  4.390E-05 0.000E+00

     Forces acting on atoms (cartesian axes, Ry/au):

     atom    1 type  1   force =     0.00004569   -0.00020358   -0.00040232
     atom    2 type  1   force =    -0.00003416    0.00064459   -0.00008211
     atom    3 type  1   force =     0.00081711    0.00016169   -0.00040202
     atom    4 type  1   force =     0.00026189    0.00094978   -0.00052128
     atom    5 type  1   force =    -0.00209983   -0.00004320   -0.00493301
     atom    6 type  1   force =     0.00229039    0.00104180   -0.00224117
     atom    7 type  1   force =    -0.00174845    0.00009839    0.00323967
     atom    8 type  1   force =     0.00036425   -0.00062864   -0.00116607
     atom    9 type  1   force =    -0.00151634    0.00099804   -0.00578817
     atom   10 type  1   force =     0.00075907   -0.00165527   -0.00676561
     atom   11 type  1   force =    -0.00141549   -0.00109243    0.00315742
     atom   12 type  1   force =     0.00227587   -0.00027117    0.01590467
     The non-local contrib.  to forces
     atom    1 type  1   force =     0.02682208   -0.00610084    0.17008039
     atom    2 type  1   force =     0.01780572    0.00082659    0.09315046
     atom    3 type  1   force =    -0.01170186    0.01501087    0.01293647
     atom    4 type  1   force =     0.00841724    0.01254315    0.00480366
     atom    5 type  1   force =    -0.00899525   -0.00541387    0.01425435
     atom    6 type  1   force =     0.00727197    0.00052825    0.01830127
     atom    7 type  1   force =    -0.00676880    0.00245752   -0.01112636
     atom    8 type  1   force =     0.00817623    0.00210670   -0.01908131
     atom    9 type  1   force =    -0.01047412   -0.00963846   -0.01326212
     atom   10 type  1   force =     0.01243299   -0.01466804   -0.02323567
     atom   11 type  1   force =    -0.01999139   -0.00227367   -0.08997856
     atom   12 type  1   force =    -0.02613127    0.00502329   -0.17321166
     The ionic contribution  to forces
     atom    1 type  1   force =     9.15829494    0.13129952  116.18433616
     atom    2 type  1   force =     8.79607238    0.47617050  103.00538004
     atom    3 type  1   force =     6.10468253    1.42108458   84.40639675
     atom    4 type  1   force =     4.53104127   -0.70051249   60.78391752
     atom    5 type  1   force =     2.77609646    0.31302212   34.43170407
     atom    6 type  1   force =     1.06607849    0.12194725   11.42799148
     atom    7 type  1   force =    -0.99182868   -0.02974617  -11.77701127
     atom    8 type  1   force =    -3.00970520   -0.42155537  -35.21227642
     atom    9 type  1   force =    -4.57266735    0.86270954  -60.67479914
     atom   10 type  1   force =    -5.79894700   -1.48382670  -83.24215504
     atom   11 type  1   force =    -8.87056671   -0.45241835 -102.82529020
     atom   12 type  1   force =    -9.18855112   -0.23817444 -116.50819395
     The local contribution  to forces
     atom    1 type  1   force =    -9.18404054   -0.12528438 -116.34247549
     atom    2 type  1   force =    -8.81360001   -0.47639178 -103.08833283
     atom    3 type  1   force =    -6.09101486   -1.43625974  -84.41246297
     atom    4 type  1   force =    -4.53893036    0.68960962  -60.78392000
     atom    5 type  1   force =    -2.76912790   -0.30757467  -34.44795364
     atom    6 type  1   force =    -1.07077740   -0.12112532  -11.44707119
     atom    7 type  1   force =     0.99664106    0.02736059   11.79025210
     atom    8 type  1   force =     3.00152101    0.41852864   35.22610083
     atom    9 type  1   force =     4.58112504   -0.85214884   60.67569475
     atom   10 type  1   force =     5.78646902    1.49679625   83.24980139
     atom   11 type  1   force =     8.88849905    0.45342048  102.90895392
     atom   12 type  1   force =     9.21639068    0.23265842  116.68787001
     The core correction contribution to forces
     atom    1 type  1   force =    -0.00054211    0.00026820   -0.00752933
     atom    2 type  1   force =    -0.00096781   -0.00021508   -0.00587153
     atom    3 type  1   force =     0.00011264   -0.00070217   -0.00324400
     atom    4 type  1   force =    -0.00000743    0.00037777   -0.00148931
     atom    5 type  1   force =     0.00025220    0.00005244    0.00092206
     atom    6 type  1   force =    -0.00013063   -0.00029280   -0.00007173
     atom    7 type  1   force =     0.00001432    0.00008570   -0.00019536
     atom    8 type  1   force =     0.00001923    0.00009733   -0.00003998
     atom    9 type  1   force =     0.00021269   -0.00069367    0.00246727
     atom   10 type  1   force =    -0.00039888    0.00088420    0.00418836
     atom   11 type  1   force =     0.00115233    0.00028655    0.00533261
     atom   12 type  1   force =     0.00025947   -0.00015218    0.00549808
     The Hubbard contrib.    to forces
     atom    1 type  1   force =     0.00000000    0.00000000    0.00000000
     atom    2 type  1   force =     0.00000000    0.00000000    0.00000000
     atom    3 type  1   force =     0.00000000    0.00000000    0.00000000
     atom    4 type  1   force =     0.00000000    0.00000000    0.00000000
     atom    5 type  1   force =     0.00000000    0.00000000    0.00000000
     atom    6 type  1   force =     0.00000000    0.00000000    0.00000000
     atom    7 type  1   force =     0.00000000    0.00000000    0.00000000
     atom    8 type  1   force =     0.00000000    0.00000000    0.00000000
     atom    9 type  1   force =     0.00000000    0.00000000    0.00000000
     atom   10 type  1   force =     0.00000000    0.00000000    0.00000000
     atom   11 type  1   force =     0.00000000    0.00000000    0.00000000
     atom   12 type  1   force =     0.00000000    0.00000000    0.00000000
     The SCF correction term to forces
     atom    1 type  1   force =     0.00001408    0.00000832   -0.00003844
     atom    2 type  1   force =     0.00000371    0.00002881   -0.00001394
     atom    3 type  1   force =     0.00001340   -0.00001183   -0.00000023
     atom    4 type  1   force =    -0.00000334    0.00000486   -0.00003656
     atom    5 type  1   force =    -0.00000000   -0.00000000    0.00000000
     atom    6 type  1   force =    -0.00000000    0.00000000    0.00000000
     atom    7 type  1   force =     0.00000000   -0.00000000    0.00000000
     atom    8 type  1   force =     0.00000000    0.00000000    0.00000000
     atom    9 type  1   force =    -0.00000000   -0.00000000   -0.00000000
     atom   10 type  1   force =     0.00000000    0.00000000    0.00000000
     atom   11 type  1   force =     0.00000000   -0.00000000   -0.00000000
     atom   12 type  1   force =    -0.00000000   -0.00000000   -0.00000000

     DFT-D3 dispersion contribution to forces:
     atom    1 type  1   force =    -0.00050239   -0.00039420   -0.00477474
     atom    2 type  1   force =     0.00065222    0.00022576   -0.00439345
     atom    3 type  1   force =    -0.00127436    0.00104017   -0.00402718
     atom    4 type  1   force =    -0.00025512   -0.00107292   -0.00379571
     atom    5 type  1   force =    -0.00030665   -0.00010829   -0.00388396
     atom    6 type  1   force =    -0.00014700   -0.00002306   -0.00140178
     atom    7 type  1   force =     0.00018326   -0.00005326    0.00130713
     atom    8 type  1   force =     0.00034561    0.00017071    0.00410853
     atom    9 type  1   force =     0.00030217    0.00078890    0.00412868
     atom   10 type  1   force =     0.00120157   -0.00084651    0.00463530
     atom   11 type  1   force =    -0.00051110   -0.00010497    0.00415131
     atom   12 type  1   force =     0.00031179    0.00037767    0.00394586

     Total force =     0.001651     Total SCF correction =     0.000067


     Computing stress (Cartesian axis) and pressure


     negative rho (up, down):  4.390E-05 0.000E+00
          total   stress  (Ry/bohr**3)                   (kbar)     P=      -13.36
  -0.00011295  -0.00000087   0.00000488          -16.62       -0.13        0.72
  -0.00000087  -0.00009701   0.00000479           -0.13      -14.27        0.70
   0.00000488   0.00000479  -0.00006244            0.72        0.70       -9.19

     Energy error            =      1.7E-05 Ry
     Gradient error          =      9.5E-04 Ry/Bohr

     bfgs converged in  12 scf cycles and  11 bfgs steps
     (criteria: energy <  1.0E-04 Ry, force <  1.0E-03 Ry/Bohr)

     End of BFGS Geometry Optimization

     Final energy             =   -1011.3405032863 Ry

     File ./Ag_111/Ag_111.bfgs deleted, as requested
Begin final coordinates

ATOMIC_POSITIONS (angstrom)
Ag            5.7564952846        2.5245169751       17.0580296261
Ag            2.3669843851        0.2843802279       16.7276506622
Ag            3.1312879200        2.9629818625       16.0285579716
Ag            4.7624217729        0.6726282044       15.1848536643
Ag            5.5476229127        3.3714821728       14.3908593113    0   0   0
Ag            2.1295357173        1.1238273909       13.9694606075    0   0   0
Ag            2.9148439214        3.7996068932       13.1971188578    0   0   0
Ag            4.5426621600        1.5519521113       12.3778066694    0   0   0
Ag            5.3279703642        4.2277316135       11.6054649197    0   0   0
Ag            1.9098831687        1.9800768317       11.1840662159    0   0   0
Ag            2.6951913729        4.6558563339       10.4117244662    0   0   0
Ag            4.3230096115        2.4082015520        9.5924122778    0   0   0
End final coordinates



     Writing all to output data dir ./Ag_111/Ag_111.save/

     init_run     :      5.28s CPU      7.95s WALL (       1 calls)
     electrons    :    225.11s CPU    243.84s WALL (      12 calls)
     update_pot   :     10.21s CPU     10.92s WALL (      11 calls)
     forces       :     13.34s CPU     14.84s WALL (      12 calls)
     force_dftd3  :      1.34s CPU      2.02s WALL (      12 calls)
     stress       :     70.42s CPU     71.45s WALL (      12 calls)
     stres_dftd3  :      0.10s CPU      0.16s WALL (      12 calls)

     Called by init_run:
     wfcinit      :      0.94s CPU      1.28s WALL (       1 calls)
     potinit      :      1.35s CPU      2.44s WALL (       1 calls)
     hinit0       :      1.93s CPU      2.41s WALL (       1 calls)

     Called by electrons:
     c_bands      :    194.22s CPU    203.00s WALL (      89 calls)
     sum_band     :     23.60s CPU     24.87s WALL (      89 calls)
     v_of_rho     :      3.46s CPU      8.79s WALL (      90 calls)
     newd         :      5.06s CPU      7.77s WALL (      90 calls)
     mix_rho      :      0.27s CPU      0.64s WALL (      89 calls)
     energy_dftd3 :      0.02s CPU      0.02s WALL (      12 calls)

     Called by c_bands:
     init_us_2    :      1.72s CPU      1.77s WALL (    1827 calls)
     init_us_2:cp :      1.71s CPU      1.76s WALL (    1827 calls)
     cegterg      :    181.18s CPU    187.54s WALL (     801 calls)

     Called by *egterg:
     cdiaghg      :     28.17s CPU     28.38s WALL (    3299 calls)
     h_psi        :    109.49s CPU    114.22s WALL (    3506 calls)
     s_psi        :      9.61s CPU      9.69s WALL (    3506 calls)
     g_psi        :      0.47s CPU      0.47s WALL (    2696 calls)

     Called by h_psi:
     h_psi:calbec :     15.69s CPU     16.75s WALL (    3506 calls)
     vloc_psi     :     83.30s CPU     86.88s WALL (    3506 calls)
     add_vuspsi   :      9.78s CPU      9.88s WALL (    3506 calls)

     General routines
     calbec       :     24.24s CPU     25.85s WALL (    4847 calls)
     fft          :      6.19s CPU     14.96s WALL (    1468 calls)
     ffts         :      0.69s CPU      0.72s WALL (     179 calls)
     fftw         :     83.02s CPU     86.47s WALL (  429399 calls)
     interpolate  :      0.91s CPU      1.11s WALL (      90 calls)

     Parallel routines

     PWSCF        :   5m25.81s CPU   5m51.78s WALL


   This run was terminated on:   7: 1:40  24Jul2025            

=------------------------------------------------------------------------------=
   JOB DONE.
=------------------------------------------------------------------------------=
[1753351301.027753] [rome25:2785111:0]           flush.c:57   UCX  ERROR req 0x2ebc5c0: error during flush: Connection reset by remote peer
[1753351301.027778] [rome25:2785111:0]           flush.c:57   UCX  ERROR req 0x2ebc5c0: error during flush: Connection reset by remote peer
[1753351301.028289] [rome25:2785091:0]           flush.c:57   UCX  ERROR req 0x2ebb9c0: error during flush: Connection reset by remote peer
[1753351301.028531] [rome25:2785091:0]           flush.c:57   UCX  ERROR req 0x2ebb9c0: error during flush: Connection reset by remote peer
