
     Program PWSCF v.7.2 starts on 25Jul2025 at 11:17:39 

     This program is part of the open-source Quantum ESPRESSO suite
     for quantum simulation of materials; please cite
         "P. Giannozzi et al., J. Phys.:Condens. Matter 21 395502 (2009);
         "P. Giannozzi et al., J. Phys.:Condens. Matter 29 465901 (2017);
         "P. Giannozzi et al., J. Chem. Phys. 152 154105 (2020);
          URL http://www.quantum-espresso.org", 
     in publications or presentations arising from this work. More details at
     http://www.quantum-espresso.org/quote

     Parallel version (MPI & OpenMP), running on     256 processor cores
     Number of MPI processes:               256
     Threads/MPI process:                     1

     MPI processes distributed on     4 nodes
     240037 MiB available memory on the printing compute node when the environment starts

     Reading input from Ag_mp-10597_110_hollow_0.in

     Current dimensions of program PWSCF are:
     Max number of different atomic species (ntypx) = 10
     Max number of k-points (npk) =  40000
     Max angular momentum in pseudopotentials (lmaxx) =  4
     Message from routine iosys:
     restart disabled: needed files not found

     K-points division:     npool     =       4
     R & G space division:  proc/nbgrp/npool/nimage =      64
     Subspace diagonalization in iterative solution of the eigenvalue problem:
     a serial algorithm will be used


     Parallelization info
     --------------------
     sticks:   dense  smooth     PW     G-vecs:    dense   smooth      PW
     Min          52      23      6                12956     3778     558
     Max          53      24      7                12995     3805     590
     Sum        3375    1477    427               830555   242337   36651

     Using Slab Decomposition



     bravais-lattice index     =            0
     lattice parameter (alat)  =       8.8849  a.u.
     unit-cell volume          =    4399.6779 (a.u.)^3
     number of atoms/cell      =           13
     number of atomic types    =            2
     number of electrons       =       135.00
     number of Kohn-Sham states=           82
     kinetic-energy cutoff     =      55.0000  Ry
     charge density cutoff     =     500.0000  Ry
     scf convergence threshold =      1.0E-06
     mixing beta               =       0.3000
     number of iterations used =            8  plain     mixing
     energy convergence thresh.=      1.0E-04
     force convergence thresh. =      1.0E-03
     Exchange-correlation= PBE
                           (   1   4   3   4   0   0   0)
     nstep                     =          500


     celldm(1)=   8.884853  celldm(2)=   0.000000  celldm(3)=   0.000000
     celldm(4)=   0.000000  celldm(5)=   0.000000  celldm(6)=   0.000000

     crystal axes: (cart. coord. in units of alat)
               a(1) = (   1.000000   0.000000   0.000000 )  
               a(2) = (   0.000000   1.072906  -0.088492 )  
               a(3) = (   0.000000   0.000000   5.846668 )  

     reciprocal axes: (cart. coord. in units 2 pi/alat)
               b(1) = (  1.000000 -0.000000  0.000000 )  
               b(2) = (  0.000000  0.932048  0.000000 )  
               b(3) = ( -0.000000  0.014107  0.171038 )  


     PseudoPot. # 1 for Li read from file:
     /home/ecastro/trabajo_final/pseudos/Li.pbe-s-rrkjus_psl.1.0.0.UPF
     MD5 check sum: 9f98d2529904d60b716d33989e9bc179
     Pseudo is Ultrasoft, Zval =  3.0
     Generated using &quot;atomic&quot; code by A. Dal Corso  v.6.3MaX
     Using radial grid of 1017 points,  4 beta functions with: 
                l(1) =   0
                l(2) =   0
                l(3) =   1
                l(4) =   1
     Q(r) pseudized with 0 coefficients 


     PseudoPot. # 2 for Ag read from file:
     /home/ecastro/trabajo_final/pseudos/Ag.pbe-n-rrkjus_psl.1.0.0.UPF
     MD5 check sum: 81cdf87bacf708300839c66ee23ce017
     Pseudo is Ultrasoft + core correction, Zval = 11.0
     Generated using &quot;atomic&quot; code by A. Dal Corso  v.6.2.2
     Using radial grid of 1237 points,  6 beta functions with: 
                l(1) =   0
                l(2) =   0
                l(3) =   1
                l(4) =   1
                l(5) =   2
                l(6) =   2
     Q(r) pseudized with 0 coefficients 


     atomic species   valence    mass     pseudopotential
        Li             3.00     6.94100     Li( 1.00)
        Ag            11.00   107.86820     Ag( 1.00)

     No symmetry found



   Cartesian axes

     site n.     atom                  positions (alat units)
         1           Ag  tau(   1) = (   0.2499996   0.2414747   3.6686431  )
         2           Ag  tau(   2) = (   0.7499998   0.9568073   3.6096448  )
         3           Ag  tau(   3) = (   0.2499999   0.7528089   3.3363941  )
         4           Ag  tau(   4) = (   0.7499999   0.3979474   3.3656634  )
         5           Ag  tau(   5) = (   0.2500000   0.1915904   3.0634458  )
         6           Ag  tau(   6) = (   0.7500000   0.9068611   3.0044513  )
         7           Ag  tau(   7) = (   0.2500000   0.7024981   2.7094786  )
         8           Ag  tau(   8) = (   0.7500000   0.3448627   2.7389759  )
         9           Ag  tau(   9) = (   0.2500000   0.1404996   2.4440032  )
        10           Ag  tau(  10) = (   0.7500000   0.8557704   2.3850086  )
        11           Ag  tau(  11) = (   0.2500000   0.6514073   2.0900360  )
        12           Ag  tau(  12) = (   0.7500000   0.2937719   2.1195332  )
        13           Li  tau(  13) = (   0.2499997   0.7533292   4.0940246  )

     --------------------------------------------
     DFT-D3 Dispersion Correction (no 3-body):
     --------------------------------------------
       Reference C6 values for interpolation: 

         atom   Coordination number   C6
         Li         0.000          2326.89
         Li         0.987           170.64
         Ag         0.000           853.49
         Ag         0.968           537.23

       Values used:

         atom   Coordination number  R0_AB[au]  C6      C8
         Ag         6.000            3.147    537.23  47741.54
         Ag         5.805            3.147    537.23  47741.54
         Ag         8.124            3.147    537.23  47741.54
         Ag         8.012            3.147    537.23  47741.54
         Ag         8.612            3.147    537.23  47741.54
         Ag         8.612            3.147    537.23  47741.54
         Ag         8.572            3.147    537.23  47741.54
         Ag         8.572            3.147    537.23  47741.54
         Ag         7.890            3.147    537.23  47741.54
         Ag         7.890            3.147    537.23  47741.54
         Ag         5.061            3.147    537.23  47741.54
         Ag         5.061            3.147    537.23  47741.54
         Li         1.237            3.303    172.87  13068.15

         Molecular C6 ( Ry / a.u.^6 ) =     84502.83


     number of k points=    34  Methfessel-Paxton smearing, width (Ry)=  0.0300
                       cart. coord. in units 2pi/alat
        k(    1) = (   0.0000000   0.0000000   0.0000000), wk =   0.0312500
        k(    2) = (   0.0000000   0.1165060   0.0000000), wk =   0.0625000
        k(    3) = (   0.0000000   0.2330120   0.0000000), wk =   0.0625000
        k(    4) = (   0.0000000   0.3495180   0.0000000), wk =   0.0625000
        k(    5) = (   0.0000000  -0.4660240   0.0000000), wk =   0.0312500
        k(    6) = (   0.1250000  -0.0000000   0.0000000), wk =   0.0625000
        k(    7) = (   0.1250000   0.1165060   0.0000000), wk =   0.0625000
        k(    8) = (   0.1250000   0.2330120   0.0000000), wk =   0.0625000
        k(    9) = (   0.1250000   0.3495180   0.0000000), wk =   0.0625000
        k(   10) = (   0.1250000  -0.4660240   0.0000000), wk =   0.0625000
        k(   11) = (   0.1250000  -0.3495180   0.0000000), wk =   0.0625000
        k(   12) = (   0.1250000  -0.2330120   0.0000000), wk =   0.0625000
        k(   13) = (   0.1250000  -0.1165060   0.0000000), wk =   0.0625000
        k(   14) = (   0.2500000  -0.0000000   0.0000000), wk =   0.0625000
        k(   15) = (   0.2500000   0.1165060   0.0000000), wk =   0.0625000
        k(   16) = (   0.2500000   0.2330120   0.0000000), wk =   0.0625000
        k(   17) = (   0.2500000   0.3495180   0.0000000), wk =   0.0625000
        k(   18) = (   0.2500000  -0.4660240   0.0000000), wk =   0.0625000
        k(   19) = (   0.2500000  -0.3495180   0.0000000), wk =   0.0625000
        k(   20) = (   0.2500000  -0.2330120   0.0000000), wk =   0.0625000
        k(   21) = (   0.2500000  -0.1165060   0.0000000), wk =   0.0625000
        k(   22) = (   0.3750000  -0.0000000   0.0000000), wk =   0.0625000
        k(   23) = (   0.3750000   0.1165060   0.0000000), wk =   0.0625000
        k(   24) = (   0.3750000   0.2330120   0.0000000), wk =   0.0625000
        k(   25) = (   0.3750000   0.3495180   0.0000000), wk =   0.0625000
        k(   26) = (   0.3750000  -0.4660240   0.0000000), wk =   0.0625000
        k(   27) = (   0.3750000  -0.3495180   0.0000000), wk =   0.0625000
        k(   28) = (   0.3750000  -0.2330120   0.0000000), wk =   0.0625000
        k(   29) = (   0.3750000  -0.1165060   0.0000000), wk =   0.0625000
        k(   30) = (  -0.5000000   0.0000000   0.0000000), wk =   0.0312500
        k(   31) = (  -0.5000000   0.1165060   0.0000000), wk =   0.0625000
        k(   32) = (  -0.5000000   0.2330120   0.0000000), wk =   0.0625000
        k(   33) = (  -0.5000000   0.3495180   0.0000000), wk =   0.0625000
        k(   34) = (  -0.5000000  -0.4660240   0.0000000), wk =   0.0312500

     Dense  grid:   830555 G-vectors     FFT dimensions: (  64,  72, 375)

     Smooth grid:   242337 G-vectors     FFT dimensions: (  45,  45, 250)

     Estimated max dynamical RAM per process >      29.75 MB

     Estimated total dynamical RAM >       6.85 GB
     Cannot read rho : file not found

     Initial potential from superposition of free atoms

     starting charge     134.9906, renormalised to     135.0000

     negative rho (up, down):  9.578E-05 0.000E+00
     Message from routine qexsd_readschema :
     xml data file ./Ag_mp-10597_110_hollow_0/Ag_mp-10597_110_hollow_0.save/data-file
     Cannot read wfcs: file not found
     Starting wfcs are  113 randomized atomic wfcs

     total cpu time spent up to now is        4.3 secs

     per-process dynamical memory:   184.4 Mb

     Self-consistent Calculation

     iteration #  1     ecut=    55.00 Ry     beta= 0.30
     Davidson diagonalization with overlap
     c_bands:  2 eigenvalues not converged
     c_bands:  1 eigenvalues not converged
     c_bands:  2 eigenvalues not converged
     c_bands:  1 eigenvalues not converged
     c_bands:  1 eigenvalues not converged
     c_bands:  2 eigenvalues not converged
     ethr =  1.00E-05,  avg # of iterations = 19.2

     negative rho (up, down):  7.839E-05 0.000E+00

     total cpu time spent up to now is       11.2 secs

     total energy              =   -1026.06536798 Ry
     estimated scf accuracy    <       0.57918878 Ry

     iteration #  2     ecut=    55.00 Ry     beta= 0.30
     Davidson diagonalization with overlap
     ethr =  4.29E-04,  avg # of iterations =  9.2

     negative rho (up, down):  8.677E-05 0.000E+00

     total cpu time spent up to now is       13.6 secs

     total energy              =   -1025.74549118 Ry
     estimated scf accuracy    <       6.43236318 Ry

     iteration #  3     ecut=    55.00 Ry     beta= 0.30
     Davidson diagonalization with overlap
     ethr =  4.29E-04,  avg # of iterations = 10.4

     negative rho (up, down):  1.058E-04 0.000E+00

     total cpu time spent up to now is       16.0 secs

     total energy              =   -1026.16351932 Ry
     estimated scf accuracy    <       2.09775713 Ry

     iteration #  4     ecut=    55.00 Ry     beta= 0.30
     Davidson diagonalization with overlap
     ethr =  4.29E-04,  avg # of iterations =  2.0

     negative rho (up, down):  6.320E-05 0.000E+00

     total cpu time spent up to now is       17.2 secs

     total energy              =   -1026.23680086 Ry
     estimated scf accuracy    <       0.12391630 Ry

     iteration #  5     ecut=    55.00 Ry     beta= 0.30
     Davidson diagonalization with overlap
     ethr =  9.18E-05,  avg # of iterations =  8.6

     negative rho (up, down):  4.751E-05 0.000E+00

     total cpu time spent up to now is       19.1 secs

     total energy              =   -1026.23482895 Ry
     estimated scf accuracy    <       0.02911169 Ry

     iteration #  6     ecut=    55.00 Ry     beta= 0.30
     Davidson diagonalization with overlap
     ethr =  2.16E-05,  avg # of iterations = 10.6

     negative rho (up, down):  3.003E-05 0.000E+00

     total cpu time spent up to now is       21.3 secs

     total energy              =   -1026.23800636 Ry
     estimated scf accuracy    <       0.00418879 Ry

     iteration #  7     ecut=    55.00 Ry     beta= 0.30
     Davidson diagonalization with overlap
     c_bands:  1 eigenvalues not converged
     ethr =  3.10E-06,  avg # of iterations =  6.3

     negative rho (up, down):  3.833E-05 0.000E+00

     total cpu time spent up to now is       23.1 secs

     total energy              =   -1026.23857748 Ry
     estimated scf accuracy    <       0.00059206 Ry

     iteration #  8     ecut=    55.00 Ry     beta= 0.30
     Davidson diagonalization with overlap
     ethr =  4.39E-07,  avg # of iterations =  2.9

     negative rho (up, down):  7.441E-05 0.000E+00

     total cpu time spent up to now is       24.5 secs

     total energy              =   -1026.23866605 Ry
     estimated scf accuracy    <       0.00014020 Ry

     iteration #  9     ecut=    55.00 Ry     beta= 0.30
     Davidson diagonalization with overlap
     ethr =  1.04E-07,  avg # of iterations =  4.0

     negative rho (up, down):  6.787E-05 0.000E+00

     total cpu time spent up to now is       25.9 secs

     total energy              =   -1026.23868295 Ry
     estimated scf accuracy    <       0.00001748 Ry

     iteration # 10     ecut=    55.00 Ry     beta= 0.30
     Davidson diagonalization with overlap
     ethr =  1.29E-08,  avg # of iterations =  4.5

     negative rho (up, down):  5.585E-05 0.000E+00

     total cpu time spent up to now is       27.3 secs

     total energy              =   -1026.23868688 Ry
     estimated scf accuracy    <       0.00000177 Ry

     iteration # 11     ecut=    55.00 Ry     beta= 0.30
     Davidson diagonalization with overlap
     ethr =  1.31E-09,  avg # of iterations =  5.3

     negative rho (up, down):  3.159E-05 0.000E+00

     total cpu time spent up to now is       29.1 secs

     End of self-consistent calculation

          k = 0.0000 0.0000 0.0000 ( 30377 PWs)   bands (ev):

   -46.5927  -5.1957  -4.1519  -3.9892  -3.8429  -3.7968  -3.7283  -3.6219
    -3.5162  -3.4952  -3.4449  -3.3623  -3.2584  -3.1563  -3.1419  -2.9860
    -2.8610  -2.8445  -2.8270  -2.8233  -2.7538  -2.7248  -2.7068  -2.6375
    -2.5276  -2.4584  -2.4364  -2.4193  -2.3908  -2.3798  -2.3759  -2.3519
    -2.3293  -2.2495  -2.1712  -2.1645  -2.1455  -2.0787  -2.0127  -2.0061
    -1.9854  -1.9700  -1.8435  -1.7696  -1.6826  -1.5607  -1.4860  -1.4491
    -1.4210  -1.3412  -1.3293  -1.3083  -1.3013  -1.1433  -1.0943  -1.0160
    -0.9910  -0.9674  -0.9426  -0.9389  -0.9368  -0.7932  -0.7498  -0.5183
     0.9362   2.3064   2.5108   2.6043   3.4938   3.7078   3.9910   4.2359
     4.3785   4.7432   5.2392   5.5272   5.5555   5.7496   5.8623   6.1670
     6.3552   6.5755

          k = 0.0000 0.1165 0.0000 ( 30371 PWs)   bands (ev):

   -46.5927  -5.0970  -4.1091  -3.9488  -3.8139  -3.7576  -3.7180  -3.6775
    -3.5773  -3.5278  -3.4980  -3.4772  -3.1974  -3.1522  -3.0912  -3.0682
    -2.9450  -2.8603  -2.8406  -2.7800  -2.7419  -2.6734  -2.6205  -2.6160
    -2.4812  -2.4353  -2.4270  -2.3978  -2.3785  -2.3636  -2.3411  -2.3275
    -2.3049  -2.2400  -2.2075  -2.1730  -2.1374  -2.0953  -2.0237  -2.0202
    -2.0013  -1.8851  -1.8808  -1.7828  -1.6282  -1.5580  -1.5043  -1.4998
    -1.4070  -1.3543  -1.3428  -1.3072  -1.3046  -1.1062  -1.0857  -1.0651
    -1.0338  -0.9816  -0.9546  -0.9378  -0.9001  -0.7991  -0.7606  -0.4806
     0.9984   1.5153   2.3987   2.6636   2.7652   3.6488   4.1176   4.4033
     4.8166   4.9715   5.4117   5.5949   5.6767   5.8846   5.9729   6.2551
     6.4020   6.7103

          k = 0.0000 0.2330 0.0000 ( 30367 PWs)   bands (ev):

   -46.5927  -4.8125  -4.0046  -3.8593  -3.8263  -3.7319  -3.7203  -3.6973
    -3.6623  -3.5888  -3.5652  -3.4833  -3.2293  -3.1600  -3.1588  -3.1076
    -2.9919  -2.9131  -2.8264  -2.7435  -2.6837  -2.6747  -2.5967  -2.5435
    -2.5302  -2.4409  -2.4061  -2.3837  -2.3440  -2.3289  -2.3195  -2.2844
    -2.2633  -2.1915  -2.1803  -2.1542  -2.1183  -2.0896  -2.0614  -1.9955
    -1.9362  -1.9259  -1.8017  -1.7367  -1.5866  -1.5645  -1.5306  -1.5237
    -1.4853  -1.3541  -1.3149  -1.3020  -1.2822  -1.1360  -1.1302  -1.1066
    -1.0516  -0.9558  -0.9287  -0.9241  -0.9061  -0.8045  -0.7602  -0.3292
     0.2586   1.2298   1.4223   2.6382   2.8922   3.4301   3.7087   4.5750
     4.8782   5.1372   5.7230   5.8270   5.9884   6.1021   6.5008   6.5113
     6.7701   7.0128

          k = 0.0000 0.3495 0.0000 ( 30339 PWs)   bands (ev):

   -46.5927  -4.3858  -3.9755  -3.9103  -3.8319  -3.7069  -3.6809  -3.6576
    -3.6375  -3.6215  -3.6137  -3.3618  -3.3431  -3.2477  -3.1490  -3.1441
    -2.9805  -2.9306  -2.8195  -2.7523  -2.7087  -2.6781  -2.6663  -2.5623
    -2.5135  -2.4862  -2.4846  -2.4311  -2.4231  -2.3559  -2.3515  -2.2797
    -2.2599  -2.2207  -2.2039  -2.0979  -2.0883  -1.9781  -1.9623  -1.8781
    -1.8547  -1.8189  -1.7434  -1.7013  -1.5724  -1.5564  -1.5286  -1.5087
    -1.4468  -1.3903  -1.3753  -1.2874  -1.1954  -1.1384  -1.1271  -1.0900
    -1.0304  -0.9634  -0.9240  -0.9073  -0.8782  -0.8040  -0.7507  -0.6606
     0.0413   0.3584   1.6778   1.8083   2.9742   3.1936   4.3510   4.5223
     4.9569   5.5844   5.5896   6.0981   6.1819   6.2670   6.5719   6.5844
     6.8002   6.8916

          k = 0.0000-0.4660 0.0000 ( 30242 PWs)   bands (ev):

   -46.5926  -4.0058  -3.9562  -3.9308  -3.9248  -3.7838  -3.6948  -3.6759
    -3.6110  -3.6104  -3.5740  -3.3862  -3.3705  -3.2210  -3.1702  -3.1081
    -2.9664  -2.8861  -2.8411  -2.8351  -2.7632  -2.6901  -2.6873  -2.5988
    -2.5515  -2.5233  -2.4788  -2.4563  -2.4473  -2.4035  -2.3739  -2.2749
    -2.2371  -2.2316  -2.2106  -2.0634  -2.0180  -1.9888  -1.9864  -1.8188
    -1.7995  -1.7414  -1.6706  -1.6426  -1.6311  -1.5651  -1.5100  -1.4910
    -1.3839  -1.3814  -1.3458  -1.2807  -1.2105  -1.1975  -1.1724  -1.0574
    -1.0480  -0.9490  -0.9427  -0.8953  -0.8761  -0.7977  -0.7475  -0.5729
    -0.5082   0.7651   0.8959   2.2093   2.5208   3.2895   4.3132   5.1152
     5.3917   5.4606   5.4976   6.1696   6.2900   6.3420   6.4769   6.5135
     6.6506   6.8398

          k = 0.1250-0.0000 0.0000 ( 30357 PWs)   bands (ev):

   -46.5927  -5.0772  -4.0775  -3.9601  -3.9178  -3.8012  -3.6915  -3.5464
    -3.5215  -3.4422  -3.4133  -3.3114  -3.2406  -3.1368  -3.0484  -2.9950
    -2.9561  -2.9189  -2.8651  -2.8365  -2.8254  -2.7351  -2.6892  -2.6369
    -2.5857  -2.4949  -2.4850  -2.4677  -2.4581  -2.4383  -2.3359  -2.2878
    -2.2260  -2.1806  -2.1714  -2.1369  -2.1049  -2.0927  -2.0651  -2.0009
    -1.9576  -1.9398  -1.8112  -1.6725  -1.6698  -1.6116  -1.4797  -1.4262
    -1.3618  -1.3503  -1.3375  -1.3130  -1.1735  -1.0967  -1.0703  -1.0685
    -1.0546  -1.0148  -0.9949  -0.9387  -0.9208  -0.8645  -0.8318  -0.4380
     1.0379   1.6956   2.4017   2.6574   3.1858   3.5972   3.7349   4.1150
     4.3754   4.8505   5.0212   5.3787   5.6429   5.6585   5.8814   6.2662
     6.6203   6.8773

          k = 0.1250 0.1165 0.0000 ( 30355 PWs)   bands (ev):

   -46.5927  -4.9812  -4.0536  -3.9204  -3.8838  -3.7763  -3.7145  -3.6300
    -3.5621  -3.5135  -3.4455  -3.3390  -3.1762  -3.1449  -3.0830  -2.9936
    -2.9621  -2.9385  -2.8632  -2.8352  -2.7750  -2.6878  -2.6571  -2.6260
    -2.6064  -2.5724  -2.4898  -2.4401  -2.4184  -2.3524  -2.3078  -2.2950
    -2.2323  -2.2126  -2.1452  -2.1240  -2.0981  -2.0787  -1.9980  -1.9855
    -1.9584  -1.8731  -1.8438  -1.6942  -1.6205  -1.5919  -1.5082  -1.4376
    -1.4012  -1.3514  -1.3425  -1.3056  -1.1688  -1.0979  -1.0810  -1.0682
    -1.0603  -1.0346  -1.0336  -0.9568  -0.8811  -0.8706  -0.8425  -0.4102
     1.0941   1.5614   1.9241   2.4948   2.7602   3.3284   3.7635   4.2699
     4.8646   4.9292   4.9913   5.5476   5.7120   5.7777   6.0060   6.3009
     6.7674   6.9682

          k = 0.1250 0.2330 0.0000 ( 30324 PWs)   bands (ev):

   -46.5926  -4.7069  -4.0093  -3.8343  -3.8046  -3.7938  -3.7756  -3.7106
    -3.6760  -3.5523  -3.4393  -3.3163  -3.1955  -3.1734  -3.1241  -3.0708
    -3.0247  -2.9138  -2.8898  -2.7757  -2.7254  -2.6902  -2.6465  -2.5914
    -2.5537  -2.5192  -2.4879  -2.4473  -2.4264  -2.3785  -2.3286  -2.2701
    -2.2345  -2.1830  -2.1666  -2.1378  -2.0215  -2.0059  -1.9805  -1.9312
    -1.8962  -1.7538  -1.7174  -1.7044  -1.6141  -1.5478  -1.5418  -1.4728
    -1.4456  -1.3532  -1.3155  -1.2834  -1.2250  -1.1789  -1.1425  -1.0709
    -1.0429  -1.0162  -0.9963  -0.9152  -0.8977  -0.8685  -0.8344  -0.2817
     0.2893   1.3190   1.5066   2.5040   2.7289   2.9789   3.7524   3.8290
     4.6155   5.2011   5.2723   5.7635   5.8153   5.9372   6.1584   6.3568
     6.9003   7.1557

          k = 0.1250 0.3495 0.0000 ( 30314 PWs)   bands (ev):

   -46.5926  -4.3068  -3.9903  -3.9100  -3.8782  -3.8479  -3.7273  -3.6470
    -3.6276  -3.4735  -3.4066  -3.3400  -3.2750  -3.2526  -3.1856  -3.0835
    -3.0275  -2.8932  -2.8520  -2.7718  -2.7281  -2.7100  -2.6572  -2.5939
    -2.5661  -2.5394  -2.5096  -2.4982  -2.4608  -2.4206  -2.3958  -2.2424
    -2.2032  -2.1798  -2.1683  -2.1175  -2.0081  -1.9719  -1.9438  -1.8454
    -1.8074  -1.7367  -1.6532  -1.6060  -1.5640  -1.5167  -1.4762  -1.4627
    -1.4368  -1.3569  -1.3161  -1.2795  -1.1978  -1.1746  -1.0969  -1.0711
    -1.0312  -0.9986  -0.9781  -0.9382  -0.8933  -0.8522  -0.8117  -0.6379
     0.0784   0.4347   1.7548   1.8934   3.0533   3.2291   3.2971   4.3310
     4.5677   4.9776   5.0277   5.6314   5.6546   6.0001   6.1240   6.3326
     6.6011   6.9045

          k = 0.1250-0.4660 0.0000 ( 30312 PWs)   bands (ev):

   -46.5927  -3.9742  -3.9702  -3.9429  -3.9246  -3.8832  -3.8474  -3.5843
    -3.5644  -3.4250  -3.3935  -3.3657  -3.3635  -3.2518  -3.2487  -3.0242
    -2.9836  -2.8616  -2.8446  -2.8056  -2.7829  -2.7356  -2.7057  -2.6227
    -2.5754  -2.5644  -2.5358  -2.5059  -2.4662  -2.4554  -2.3863  -2.2284
    -2.2126  -2.1880  -2.1598  -2.0603  -2.0130  -1.9715  -1.9340  -1.8204
    -1.7893  -1.6844  -1.6787  -1.6041  -1.5776  -1.4906  -1.4119  -1.3969
    -1.3887  -1.3389  -1.3160  -1.2189  -1.2110  -1.1499  -1.1252  -1.0598
    -1.0530  -1.0028  -0.9747  -0.9569  -0.9447  -0.8746  -0.8265  -0.5034
    -0.4429   0.8230   0.9666   2.2847   2.5888   3.3605   4.0751   4.1141
     4.3741   4.9542   5.1259   5.2192   5.5390   6.0740   6.2431   6.3020
     6.5890   6.9605

          k = 0.1250-0.3495 0.0000 ( 30314 PWs)   bands (ev):

   -46.5926  -4.3068  -3.9903  -3.9100  -3.8782  -3.8479  -3.7273  -3.6470
    -3.6276  -3.4735  -3.4066  -3.3400  -3.2750  -3.2526  -3.1856  -3.0835
    -3.0275  -2.8932  -2.8520  -2.7718  -2.7281  -2.7100  -2.6572  -2.5939
    -2.5661  -2.5394  -2.5096  -2.4982  -2.4608  -2.4206  -2.3958  -2.2424
    -2.2032  -2.1798  -2.1683  -2.1175  -2.0081  -1.9719  -1.9438  -1.8454
    -1.8074  -1.7367  -1.6532  -1.6060  -1.5640  -1.5167  -1.4762  -1.4627
    -1.4368  -1.3569  -1.3161  -1.2795  -1.1978  -1.1746  -1.0969  -1.0711
    -1.0312  -0.9986  -0.9781  -0.9382  -0.8933  -0.8522  -0.8117  -0.6379
     0.0784   0.4347   1.7548   1.8934   3.0533   3.2291   3.2971   4.3310
     4.5677   4.9776   5.0277   5.6314   5.6546   6.0001   6.1240   6.3326
     6.6011   6.9043

          k = 0.1250-0.2330 0.0000 ( 30324 PWs)   bands (ev):

   -46.5926  -4.7069  -4.0093  -3.8343  -3.8046  -3.7938  -3.7756  -3.7106
    -3.6760  -3.5523  -3.4393  -3.3163  -3.1955  -3.1734  -3.1241  -3.0708
    -3.0247  -2.9138  -2.8898  -2.7757  -2.7254  -2.6902  -2.6465  -2.5914
    -2.5537  -2.5192  -2.4879  -2.4473  -2.4264  -2.3785  -2.3286  -2.2701
    -2.2345  -2.1830  -2.1666  -2.1378  -2.0215  -2.0059  -1.9805  -1.9312
    -1.8962  -1.7538  -1.7174  -1.7044  -1.6141  -1.5478  -1.5418  -1.4728
    -1.4456  -1.3532  -1.3155  -1.2834  -1.2250  -1.1789  -1.1425  -1.0709
    -1.0429  -1.0162  -0.9963  -0.9152  -0.8977  -0.8685  -0.8344  -0.2817
     0.2893   1.3190   1.5066   2.5040   2.7289   2.9789   3.7524   3.8290
     4.6155   5.2011   5.2723   5.7635   5.8153   5.9372   6.1584   6.3568
     6.9004   7.1569

          k = 0.1250-0.1165 0.0000 ( 30355 PWs)   bands (ev):

   -46.5927  -4.9812  -4.0536  -3.9204  -3.8838  -3.7763  -3.7145  -3.6300
    -3.5621  -3.5135  -3.4455  -3.3390  -3.1762  -3.1449  -3.0830  -2.9936
    -2.9621  -2.9385  -2.8632  -2.8352  -2.7750  -2.6878  -2.6571  -2.6260
    -2.6064  -2.5724  -2.4898  -2.4401  -2.4184  -2.3524  -2.3078  -2.2950
    -2.2323  -2.2126  -2.1452  -2.1240  -2.0981  -2.0787  -1.9980  -1.9855
    -1.9584  -1.8731  -1.8438  -1.6942  -1.6205  -1.5919  -1.5082  -1.4376
    -1.4012  -1.3514  -1.3425  -1.3056  -1.1688  -1.0979  -1.0810  -1.0682
    -1.0603  -1.0346  -1.0336  -0.9568  -0.8811  -0.8706  -0.8425  -0.4102
     1.0941   1.5614   1.9241   2.4948   2.7602   3.3284   3.7635   4.2699
     4.8646   4.9292   4.9913   5.5476   5.7120   5.7777   6.0060   6.3009
     6.7674   6.9682

          k = 0.2500-0.0000 0.0000 ( 30361 PWs)   bands (ev):

   -46.5927  -4.7393  -4.0289  -3.8894  -3.8656  -3.6919  -3.5952  -3.5328
    -3.4792  -3.4542  -3.3357  -3.2439  -3.1682  -3.0917  -3.0829  -3.0471
    -2.9838  -2.9288  -2.9149  -2.8773  -2.8663  -2.8084  -2.7377  -2.6172
    -2.5777  -2.5611  -2.5166  -2.5011  -2.4919  -2.4859  -2.3937  -2.2847
    -2.2410  -2.2081  -2.1934  -2.1485  -2.0728  -2.0496  -1.9570  -1.9509
    -1.8657  -1.7394  -1.7058  -1.6943  -1.5521  -1.5373  -1.4578  -1.3770
    -1.3627  -1.3479  -1.3354  -1.3156  -1.3079  -1.2478  -1.1797  -1.1055
    -1.0383  -0.9903  -0.9865  -0.9551  -0.9280  -0.8786  -0.8429  -0.2173
     0.3608   1.3479   1.7510   2.6821   2.8411   3.3862   3.7220   3.9151
     4.4425   4.7422   4.8058   5.1683   5.7693   5.9053   5.9744   6.2067
     6.3705   6.8667

          k = 0.2500 0.1165 0.0000 ( 30338 PWs)   bands (ev):

   -46.5926  -4.6521  -3.9973  -3.9238  -3.8190  -3.7087  -3.6870  -3.5477
    -3.4932  -3.4765  -3.3375  -3.2586  -3.2089  -3.1471  -3.1191  -3.0228
    -2.9594  -2.9377  -2.9187  -2.8635  -2.7968  -2.7501  -2.7167  -2.6490
    -2.6402  -2.6070  -2.5520  -2.5097  -2.4605  -2.4126  -2.3419  -2.3140
    -2.2327  -2.1961  -2.1462  -2.1250  -2.0024  -1.9892  -1.9055  -1.8637
    -1.8199  -1.7454  -1.7292  -1.6774  -1.5653  -1.5234  -1.4603  -1.3943
    -1.3704  -1.3592  -1.3259  -1.3123  -1.2742  -1.2597  -1.1676  -1.1515
    -1.0628  -1.0304  -1.0023  -0.9741  -0.9320  -0.8748  -0.8204  -0.1965
     0.5936   1.3904   1.7177   1.9085   2.7842   3.0084   3.5491   4.0881
     4.4804   4.5848   4.9163   5.2344   5.6914   5.9434   6.0145   6.1234
     6.3511   6.9108

          k = 0.2500 0.2330 0.0000 ( 30302 PWs)   bands (ev):

   -46.5926  -4.4120  -4.0050  -3.9067  -3.8692  -3.7072  -3.7038  -3.6124
    -3.5872  -3.4646  -3.3884  -3.2965  -3.2021  -3.1811  -3.1098  -3.0457
    -3.0146  -2.9232  -2.9147  -2.8658  -2.7918  -2.7485  -2.7061  -2.6849
    -2.6214  -2.5621  -2.5486  -2.4769  -2.4517  -2.4029  -2.3643  -2.2314
    -2.2083  -2.1594  -2.0888  -2.0813  -1.9547  -1.9219  -1.8575  -1.7864
    -1.7038  -1.6922  -1.6417  -1.5859  -1.5456  -1.5073  -1.4833  -1.4479
    -1.3465  -1.3341  -1.3108  -1.2899  -1.2624  -1.2590  -1.1903  -1.1494
    -1.0677  -1.0381  -1.0149  -0.9788  -0.9556  -0.8456  -0.8308  -0.0836
     0.4550   1.1172   1.5975   1.7820   2.2183   2.9922   3.3332   3.7277
     4.0814   4.2837   4.6444   5.2635   5.4509   5.6466   5.8629   6.2045
     6.4272   6.7047

          k = 0.2500 0.3495 0.0000 ( 30286 PWs)   bands (ev):

   -46.5926  -4.1093  -4.0688  -3.9621  -3.8310  -3.7865  -3.7620  -3.5776
    -3.5228  -3.3982  -3.3692  -3.3298  -3.2656  -3.2187  -3.1373  -3.1060
    -3.0651  -2.9520  -2.9017  -2.8384  -2.7885  -2.7210  -2.7126  -2.6295
    -2.6043  -2.5649  -2.5436  -2.5153  -2.4458  -2.4288  -2.3626  -2.2466
    -2.1770  -2.1622  -2.1363  -1.9874  -1.9287  -1.8299  -1.7825  -1.7496
    -1.6843  -1.6465  -1.6135  -1.5584  -1.5279  -1.4906  -1.4131  -1.3766
    -1.3078  -1.2835  -1.2534  -1.2242  -1.2083  -1.1935  -1.1616  -1.1489
    -1.0950  -1.0009  -0.9931  -0.9645  -0.8902  -0.8573  -0.8322  -0.5155
     0.2512   0.6772   1.7877   1.9934   2.1369   2.8061   3.2658   3.4132
     3.4631   4.0754   4.3682   4.8190   5.2593   5.4674   5.6903   6.1100
     6.6028   6.7620

          k = 0.2500-0.4660 0.0000 ( 30312 PWs)   bands (ev):

   -46.5926  -4.0931  -4.0365  -3.8851  -3.8502  -3.7997  -3.7771  -3.5412
    -3.5376  -3.3766  -3.3296  -3.2815  -3.2469  -3.2424  -3.2346  -3.1607
    -3.1039  -2.9109  -2.8604  -2.8400  -2.7793  -2.7271  -2.7188  -2.6169
    -2.6036  -2.5903  -2.5502  -2.5162  -2.4894  -2.4177  -2.3522  -2.2467
    -2.1767  -2.1493  -2.1445  -1.9116  -1.8990  -1.8761  -1.8229  -1.7229
    -1.6837  -1.6477  -1.6381  -1.5486  -1.5121  -1.4467  -1.4022  -1.3127
    -1.2819  -1.2467  -1.2388  -1.2147  -1.1791  -1.1341  -1.1213  -1.0526
    -1.0437  -1.0292  -1.0193  -0.9595  -0.9486  -0.9136  -0.8941  -0.3474
    -0.2977   1.0398   1.1982   2.4674   2.5241   2.5913   2.7953   3.4612
     3.4716   3.6130   4.3518   4.7541   5.1501   5.3175   5.5504   6.3223
     6.6057   6.8310

          k = 0.2500-0.3495 0.0000 ( 30286 PWs)   bands (ev):

   -46.5926  -4.1093  -4.0688  -3.9621  -3.8310  -3.7865  -3.7620  -3.5776
    -3.5228  -3.3982  -3.3692  -3.3298  -3.2656  -3.2187  -3.1373  -3.1060
    -3.0651  -2.9520  -2.9017  -2.8384  -2.7885  -2.7210  -2.7126  -2.6295
    -2.6043  -2.5649  -2.5436  -2.5153  -2.4458  -2.4288  -2.3626  -2.2466
    -2.1770  -2.1622  -2.1363  -1.9874  -1.9287  -1.8299  -1.7825  -1.7496
    -1.6843  -1.6465  -1.6135  -1.5584  -1.5279  -1.4906  -1.4131  -1.3766
    -1.3078  -1.2835  -1.2534  -1.2242  -1.2083  -1.1935  -1.1616  -1.1489
    -1.0950  -1.0009  -0.9931  -0.9645  -0.8902  -0.8573  -0.8322  -0.5155
     0.2512   0.6772   1.7877   1.9934   2.1369   2.8061   3.2658   3.4132
     3.4631   4.0754   4.3682   4.8190   5.2593   5.4674   5.6903   6.1100
     6.6028   6.7619

          k = 0.2500-0.2330 0.0000 ( 30302 PWs)   bands (ev):

   -46.5926  -4.4120  -4.0050  -3.9067  -3.8692  -3.7072  -3.7038  -3.6124
    -3.5872  -3.4646  -3.3884  -3.2965  -3.2021  -3.1811  -3.1098  -3.0457
    -3.0146  -2.9232  -2.9147  -2.8658  -2.7918  -2.7485  -2.7061  -2.6849
    -2.6214  -2.5621  -2.5486  -2.4769  -2.4517  -2.4029  -2.3643  -2.2314
    -2.2083  -2.1594  -2.0888  -2.0813  -1.9547  -1.9219  -1.8575  -1.7864
    -1.7038  -1.6922  -1.6417  -1.5859  -1.5456  -1.5073  -1.4833  -1.4479
    -1.3465  -1.3341  -1.3108  -1.2899  -1.2624  -1.2590  -1.1903  -1.1494
    -1.0677  -1.0381  -1.0149  -0.9788  -0.9556  -0.8456  -0.8308  -0.0836
     0.4550   1.1172   1.5975   1.7820   2.2183   2.9922   3.3332   3.7277
     4.0814   4.2837   4.6444   5.2635   5.4509   5.6466   5.8629   6.2046
     6.4272   6.7047

          k = 0.2500-0.1165 0.0000 ( 30338 PWs)   bands (ev):

   -46.5926  -4.6521  -3.9973  -3.9238  -3.8190  -3.7087  -3.6870  -3.5477
    -3.4932  -3.4765  -3.3375  -3.2586  -3.2089  -3.1471  -3.1191  -3.0228
    -2.9594  -2.9377  -2.9187  -2.8635  -2.7968  -2.7501  -2.7167  -2.6490
    -2.6402  -2.6070  -2.5520  -2.5097  -2.4605  -2.4126  -2.3419  -2.3140
    -2.2327  -2.1961  -2.1462  -2.1250  -2.0024  -1.9892  -1.9055  -1.8637
    -1.8199  -1.7454  -1.7292  -1.6774  -1.5653  -1.5234  -1.4603  -1.3943
    -1.3704  -1.3592  -1.3259  -1.3123  -1.2742  -1.2597  -1.1676  -1.1515
    -1.0628  -1.0304  -1.0023  -0.9741  -0.9320  -0.8748  -0.8204  -0.1965
     0.5936   1.3904   1.7177   1.9085   2.7842   3.0084   3.5491   4.0881
     4.4804   4.5848   4.9163   5.2344   5.6914   5.9434   6.0145   6.1234
     6.3510   6.9108

          k = 0.3750-0.0000 0.0000 ( 30267 PWs)   bands (ev):

   -46.5926  -4.2589  -4.0162  -3.7745  -3.7059  -3.6300  -3.5535  -3.4958
    -3.4833  -3.4516  -3.4491  -3.2396  -3.1603  -3.0797  -3.0614  -2.9776
    -2.9637  -2.9613  -2.8995  -2.8761  -2.8284  -2.7537  -2.6967  -2.6532
    -2.5862  -2.5739  -2.5526  -2.5210  -2.5024  -2.4990  -2.3798  -2.3652
    -2.2789  -2.2340  -2.1946  -2.1107  -2.1002  -2.0290  -1.9625  -1.9438
    -1.7993  -1.7339  -1.7096  -1.6532  -1.5778  -1.5360  -1.5227  -1.4638
    -1.4165  -1.3743  -1.2545  -1.2422  -1.2066  -1.1985  -1.1488  -1.1035
    -1.0574  -0.9980  -0.9925  -0.9149  -0.9046  -0.8689  -0.8023  -0.7253
     0.2396   0.4916   1.8859   2.1181   3.0813   3.2285   3.5971   3.7148
     4.3948   4.7955   4.9641   5.1057   5.6900   6.0666   6.3969   6.4698
     6.5732   6.8313

          k = 0.3750 0.1165 0.0000 ( 30287 PWs)   bands (ev):

   -46.5926  -4.1873  -3.9867  -3.7926  -3.7174  -3.6705  -3.6332  -3.5440
    -3.5055  -3.4270  -3.3616  -3.3190  -3.2833  -3.1126  -3.0738  -3.0473
    -2.9371  -2.9274  -2.9145  -2.8845  -2.8049  -2.7887  -2.6893  -2.6584
    -2.6196  -2.5739  -2.5457  -2.5171  -2.4560  -2.4042  -2.3622  -2.2787
    -2.2412  -2.2167  -2.1395  -2.0675  -2.0384  -2.0172  -1.8909  -1.8488
    -1.8064  -1.6955  -1.6826  -1.5999  -1.5731  -1.5621  -1.5409  -1.4753
    -1.4271  -1.3838  -1.2959  -1.2544  -1.2185  -1.1817  -1.1710  -1.1111
    -1.0686  -1.0158  -0.9862  -0.9179  -0.9005  -0.8367  -0.8125  -0.4925
     0.2772   0.5931   1.9192   2.1646   2.1844   3.2599   3.5556   3.6804
     3.7278   4.5212   4.9042   5.0855   5.4373   5.7691   6.0434   6.4619
     6.6309   6.7789

          k = 0.3750 0.2330 0.0000 ( 30255 PWs)   bands (ev):

   -46.5926  -4.0181  -3.9464  -3.9012  -3.8325  -3.6607  -3.6058  -3.5932
    -3.5062  -3.4812  -3.4248  -3.3752  -3.3108  -3.1514  -3.1198  -3.0790
    -2.9911  -2.9786  -2.9291  -2.8751  -2.8688  -2.8315  -2.7415  -2.6581
    -2.6091  -2.5558  -2.5145  -2.4588  -2.3520  -2.3152  -2.2784  -2.2146
    -2.1634  -2.1459  -2.0991  -2.0409  -1.9310  -1.8807  -1.8565  -1.7265
    -1.7017  -1.6477  -1.6183  -1.6044  -1.5439  -1.5189  -1.4914  -1.4479
    -1.3904  -1.3532  -1.3138  -1.2409  -1.2130  -1.1797  -1.1386  -1.1161
    -1.0447  -1.0159  -0.9549  -0.9326  -0.9038  -0.8397  -0.7959  -0.0395
     0.4262   0.8450   0.9813   2.0949   2.2021   2.4763   2.9111   3.4318
     3.7007   3.8131   4.0781   4.6745   5.2316   5.4058   5.7218   6.2120
     6.5465   6.8154

          k = 0.3750 0.3495 0.0000 ( 30296 PWs)   bands (ev):

   -46.5926  -4.0529  -3.9938  -3.8195  -3.7835  -3.7777  -3.6795  -3.5818
    -3.4873  -3.4319  -3.4031  -3.3571  -3.3100  -3.1825  -3.1479  -3.1148
    -3.0516  -3.0037  -2.9659  -2.9048  -2.8830  -2.8284  -2.8127  -2.6438
    -2.6266  -2.5005  -2.4372  -2.3984  -2.3629  -2.3338  -2.2298  -2.2059
    -2.1400  -2.0890  -2.0802  -1.9352  -1.9090  -1.8402  -1.7812  -1.7376
    -1.6720  -1.6275  -1.6041  -1.5512  -1.4961  -1.4726  -1.4252  -1.3703
    -1.3192  -1.2945  -1.2491  -1.1664  -1.1494  -1.1169  -1.0705  -1.0399
    -1.0119  -0.9910  -0.9792  -0.9427  -0.8507  -0.8122  -0.5974  -0.0576
     0.5098   0.7348   1.1720   1.3739   1.9857   2.3782   2.6678   2.7520
     3.0543   3.5616   3.6683   4.4313   4.8920   5.0394   5.5929   6.1597
     6.4679   6.8577

          k = 0.3750-0.4660 0.0000 ( 30298 PWs)   bands (ev):

   -46.5926  -4.0900  -4.0295  -3.8409  -3.7911  -3.7115  -3.6584  -3.5687
    -3.5315  -3.4692  -3.4143  -3.2999  -3.2616  -3.1588  -3.1460  -3.1300
    -3.0941  -3.0603  -2.9753  -2.8930  -2.8805  -2.8092  -2.7578  -2.6876
    -2.6353  -2.5217  -2.4744  -2.3497  -2.3172  -2.2645  -2.2179  -2.2137
    -2.1648  -2.0676  -2.0546  -1.9680  -1.9498  -1.8115  -1.7676  -1.7418
    -1.7159  -1.6019  -1.5858  -1.5198  -1.4697  -1.4608  -1.4075  -1.3713
    -1.3147  -1.2586  -1.2068  -1.1489  -1.1114  -1.0209  -1.0124  -1.0082
    -0.9934  -0.9847  -0.9758  -0.8391  -0.8339  -0.7169  -0.6984   0.0611
     0.0970   1.1599   1.1841   1.5077   1.6383   2.0333   2.1810   2.8847
     3.0516   3.2862   3.4926   4.3529   4.8017   4.8757   5.5238   6.1502
     6.5041   7.0562

          k = 0.3750-0.3495 0.0000 ( 30296 PWs)   bands (ev):

   -46.5926  -4.0529  -3.9938  -3.8195  -3.7835  -3.7777  -3.6795  -3.5818
    -3.4873  -3.4319  -3.4031  -3.3571  -3.3100  -3.1825  -3.1479  -3.1148
    -3.0516  -3.0037  -2.9659  -2.9048  -2.8830  -2.8284  -2.8127  -2.6438
    -2.6266  -2.5005  -2.4372  -2.3984  -2.3629  -2.3338  -2.2298  -2.2059
    -2.1400  -2.0890  -2.0802  -1.9352  -1.9090  -1.8402  -1.7812  -1.7376
    -1.6720  -1.6275  -1.6041  -1.5512  -1.4961  -1.4726  -1.4252  -1.3703
    -1.3192  -1.2945  -1.2491  -1.1664  -1.1494  -1.1169  -1.0705  -1.0399
    -1.0119  -0.9910  -0.9792  -0.9427  -0.8507  -0.8122  -0.5974  -0.0576
     0.5098   0.7348   1.1720   1.3739   1.9857   2.3782   2.6678   2.7520
     3.0543   3.5616   3.6683   4.4313   4.8920   5.0394   5.5928   6.1596
     6.4679   6.8573

          k = 0.3750-0.2330 0.0000 ( 30255 PWs)   bands (ev):

   -46.5926  -4.0181  -3.9464  -3.9012  -3.8325  -3.6607  -3.6058  -3.5932
    -3.5062  -3.4812  -3.4248  -3.3752  -3.3108  -3.1514  -3.1198  -3.0790
    -2.9911  -2.9787  -2.9291  -2.8751  -2.8688  -2.8315  -2.7415  -2.6581
    -2.6091  -2.5558  -2.5145  -2.4588  -2.3520  -2.3152  -2.2784  -2.2146
    -2.1634  -2.1459  -2.0991  -2.0409  -1.9310  -1.8807  -1.8565  -1.7265
    -1.7017  -1.6477  -1.6183  -1.6044  -1.5439  -1.5189  -1.4914  -1.4479
    -1.3904  -1.3532  -1.3138  -1.2409  -1.2130  -1.1797  -1.1386  -1.1161
    -1.0447  -1.0159  -0.9549  -0.9326  -0.9038  -0.8397  -0.7959  -0.0395
     0.4262   0.8450   0.9813   2.0949   2.2021   2.4763   2.9111   3.4318
     3.7007   3.8131   4.0781   4.6745   5.2316   5.4058   5.7219   6.2119
     6.5464   6.8155

          k = 0.3750-0.1165 0.0000 ( 30287 PWs)   bands (ev):

   -46.5926  -4.1873  -3.9867  -3.7926  -3.7174  -3.6705  -3.6332  -3.5440
    -3.5055  -3.4270  -3.3616  -3.3190  -3.2833  -3.1126  -3.0738  -3.0473
    -2.9371  -2.9274  -2.9145  -2.8845  -2.8049  -2.7887  -2.6893  -2.6584
    -2.6196  -2.5739  -2.5457  -2.5171  -2.4560  -2.4042  -2.3622  -2.2787
    -2.2412  -2.2167  -2.1395  -2.0675  -2.0384  -2.0172  -1.8909  -1.8488
    -1.8064  -1.6955  -1.6826  -1.5999  -1.5731  -1.5621  -1.5409  -1.4753
    -1.4271  -1.3838  -1.2959  -1.2544  -1.2185  -1.1817  -1.1710  -1.1111
    -1.0686  -1.0158  -0.9862  -0.9179  -0.9005  -0.8367  -0.8125  -0.4925
     0.2772   0.5931   1.9192   2.1646   2.1844   3.2599   3.5556   3.6804
     3.7278   4.5212   4.9042   5.0855   5.4373   5.7691   6.0434   6.4617
     6.6310   6.7787

          k =-0.5000 0.0000 0.0000 ( 30196 PWs)   bands (ev):

   -46.5925  -3.8893  -3.8875  -3.8482  -3.8395  -3.5774  -3.5748  -3.4923
    -3.4891  -3.3626  -3.3553  -3.3038  -3.2979  -3.0041  -2.9986  -2.9737
    -2.9497  -2.9459  -2.9396  -2.8109  -2.8056  -2.7513  -2.7438  -2.6419
    -2.6333  -2.5704  -2.5622  -2.4791  -2.4685  -2.4070  -2.3752  -2.3168
    -2.3131  -2.2383  -2.2129  -2.0830  -2.0719  -1.9982  -1.9893  -1.9394
    -1.9352  -1.9020  -1.8802  -1.7280  -1.7150  -1.5286  -1.5095  -1.3656
    -1.3651  -1.2862  -1.2851  -1.2347  -1.2262  -1.1676  -1.1485  -0.9905
    -0.9875  -0.9721  -0.9597  -0.9376  -0.9295  -0.9012  -0.8903  -0.4983
    -0.4687   1.0013   1.0726   2.6332   2.6872   3.4136   3.4730   3.7581
     4.1539   4.8483   5.0688   5.2948   5.6311   6.3823   6.4078   6.4796
     6.6785   6.7139

          k =-0.5000 0.1165 0.0000 ( 30222 PWs)   bands (ev):

   -46.5925  -3.8615  -3.8611  -3.7923  -3.7842  -3.6587  -3.6567  -3.5680
    -3.5658  -3.3676  -3.3635  -3.2907  -3.2850  -3.1342  -3.1257  -2.9821
    -2.9738  -2.9203  -2.9169  -2.8785  -2.8517  -2.7466  -2.7376  -2.6180
    -2.6085  -2.5183  -2.5104  -2.4278  -2.4143  -2.3746  -2.3612  -2.3049
    -2.2994  -2.1098  -2.0913  -2.0570  -2.0453  -1.9745  -1.9711  -1.9203
    -1.9086  -1.8778  -1.8706  -1.6547  -1.6265  -1.5394  -1.5270  -1.4241
    -1.4232  -1.2695  -1.2600  -1.2291  -1.2140  -1.1019  -1.0956  -0.9958
    -0.9899  -0.9836  -0.9736  -0.9432  -0.9367  -0.8773  -0.8648  -0.4217
    -0.3907   1.0499   1.1264   2.6573   2.7214   2.8320   2.8755   3.7960
     4.1553   4.1735   4.3428   5.1810   5.6304   5.7989   6.0444   6.4480
     6.6714   7.0438

          k =-0.5000 0.2330 0.0000 ( 30230 PWs)   bands (ev):

   -46.5925  -3.8177  -3.8150  -3.7992  -3.7980  -3.7437  -3.7433  -3.6178
    -3.6149  -3.3719  -3.3675  -3.2742  -3.2699  -3.1800  -3.1722  -3.1128
    -3.1085  -3.0084  -3.0063  -2.9244  -2.8941  -2.7473  -2.7331  -2.6420
    -2.6335  -2.4920  -2.4807  -2.3286  -2.3175  -2.2825  -2.2728  -2.1614
    -2.1606  -2.0383  -2.0250  -1.9880  -1.9844  -1.9448  -1.9295  -1.8700
    -1.8654  -1.7226  -1.7098  -1.5831  -1.5578  -1.4781  -1.4590  -1.4220
    -1.4203  -1.2776  -1.2706  -1.2570  -1.2329  -1.0467  -1.0348  -1.0164
    -1.0098  -0.9300  -0.9242  -0.8645  -0.8604  -0.8151  -0.8023  -0.1948
    -0.1591   1.2168   1.3070   1.7540   1.7953   2.7706   2.8639   3.0250
     3.1267   3.8546   4.0552   4.5785   5.1179   5.2346   5.6295   6.3341
     6.7093   6.8595

          k =-0.5000 0.3495 0.0000 ( 30248 PWs)   bands (ev):

   -46.5926  -3.9325  -3.9303  -3.8667  -3.8664  -3.7009  -3.6998  -3.5675
    -3.5671  -3.3537  -3.3421  -3.2816  -3.2777  -3.1939  -3.1924  -3.1197
    -3.1120  -3.0531  -3.0493  -2.9501  -2.9349  -2.7971  -2.7807  -2.6950
    -2.6801  -2.4782  -2.4697  -2.3252  -2.3084  -2.1545  -2.1470  -2.0614
    -2.0576  -1.9767  -1.9760  -1.9576  -1.9462  -1.8860  -1.8734  -1.8382
    -1.8352  -1.7474  -1.7342  -1.6257  -1.6194  -1.3431  -1.3224  -1.2907
    -1.2819  -1.2151  -1.2052  -1.1736  -1.1561  -1.0785  -1.0632  -1.0253
    -1.0167  -0.9064  -0.8986  -0.8821  -0.8763  -0.4497  -0.4386   0.2120
     0.2524   0.8015   0.8418   1.5154   1.5798   1.9176   2.0816   2.9070
     3.0470   3.3839   3.3848   4.3768   4.7929   4.8034   5.5211   6.1322
     6.5635   6.9984

          k =-0.5000-0.4660 0.0000 ( 30304 PWs)   bands (ev):

   -46.5926  -3.9751  -3.9728  -3.9098  -3.9097  -3.6392  -3.6373  -3.5800
    -3.5794  -3.3770  -3.3645  -3.3110  -3.3049  -3.1802  -3.1745  -3.1206
    -3.1135  -2.9969  -2.9912  -2.9155  -2.9049  -2.8436  -2.8340  -2.7459
    -2.7342  -2.4303  -2.4119  -2.3373  -2.3286  -2.1098  -2.0985  -2.0773
    -2.0699  -1.9612  -1.9508  -1.9144  -1.8933  -1.8793  -1.8739  -1.8358
    -1.8354  -1.7565  -1.7380  -1.6817  -1.6811  -1.3154  -1.2912  -1.2294
    -1.2262  -1.1957  -1.1790  -1.1471  -1.1370  -1.0073  -0.9914  -0.9782
    -0.9680  -0.9238  -0.9154  -0.9067  -0.9027   0.0543   0.0583   0.0677
     0.0958   0.8577   0.9150   0.9261   0.9702   2.1099   2.3956   2.4098
     2.4535   3.2996   3.3462   4.3175   4.6757   4.6832   5.5620   5.9695
     6.3635   7.0879

     the Fermi energy is     2.0118 ev

!    total energy              =   -1026.23868769 Ry
     estimated scf accuracy    <       0.00000050 Ry
     smearing contrib. (-TS)   =      -0.00086016 Ry
     internal energy E=F+TS    =   -1026.23782753 Ry

     The total energy is F=E-TS. E is the sum of the following terms:
     one-electron contribution =  -10521.86866169 Ry
     hartree contribution      =    5355.38410586 Ry
     xc contribution           =    -271.32330742 Ry
     ewald contribution        =    4411.88666334 Ry
     DFT-D3 Dispersion         =      -0.31662762 Ry

     convergence has been achieved in  11 iterations

     negative rho (up, down):  3.159E-05 0.000E+00

     Forces acting on atoms (cartesian axes, Ry/au):

     atom    1 type  2   force =    -0.00000091   -0.00209457    0.01386017
     atom    2 type  2   force =    -0.00000232    0.00071284    0.01452871
     atom    3 type  2   force =     0.00000040   -0.00067792    0.00236093
     atom    4 type  2   force =    -0.00000020    0.00089309   -0.00067763
     atom    5 type  2   force =     0.00000082    0.00194455   -0.00465553
     atom    6 type  2   force =     0.00000081   -0.00226746   -0.00408492
     atom    7 type  2   force =     0.00000006    0.00298220    0.00290867
     atom    8 type  2   force =     0.00000091   -0.00213006    0.00297019
     atom    9 type  2   force =     0.00000050   -0.00099362   -0.00621043
     atom   10 type  2   force =     0.00000092   -0.00014371   -0.00637260
     atom   11 type  2   force =     0.00000105    0.00218118    0.00922629
     atom   12 type  2   force =    -0.00000188   -0.00068883    0.00918317
     atom   13 type  1   force =    -0.00000017    0.00028231   -0.03303703
     The non-local contrib.  to forces
     atom    1 type  2   force =     0.00000016    0.01798559    0.06135942
     atom    2 type  2   force =    -0.00000249   -0.00028634    0.07105632
     atom    3 type  2   force =     0.00000009    0.01314408   -0.00376744
     atom    4 type  2   force =    -0.00000120   -0.00864701    0.00683995
     atom    5 type  2   force =     0.00000006    0.00260598    0.00372664
     atom    6 type  2   force =     0.00000254   -0.00053821    0.00218597
     atom    7 type  2   force =    -0.00000058    0.00139745   -0.01019373
     atom    8 type  2   force =     0.00000112   -0.00315363   -0.00758375
     atom    9 type  2   force =     0.00000036    0.01717549   -0.00635910
     atom   10 type  2   force =     0.00000114   -0.01726539   -0.00509583
     atom   11 type  2   force =     0.00000089    0.01436574   -0.13460024
     atom   12 type  2   force =    -0.00000121   -0.03655212   -0.12783542
     atom   13 type  1   force =     0.00000005    0.00025866    0.04631409
     The ionic contribution  to forces
     atom    1 type  2   force =     0.00001311   10.67027632  110.81417161
     atom    2 type  2   force =    -0.00000636    7.77331934  111.15863832
     atom    3 type  2   force =     0.00000143    5.33814511   70.68577010
     atom    4 type  2   force =    -0.00000839    6.29553942   70.93330733
     atom    5 type  2   force =     0.00000063    1.82498552   20.52511346
     atom    6 type  2   force =    -0.00000125    1.57255390   20.54728724
     atom    7 type  2   force =     0.00000022   -2.13701282  -26.71997000
     atom    8 type  2   force =     0.00000009   -2.27095848  -26.70221754
     atom    9 type  2   force =     0.00000001   -6.75982657  -75.80940889
     atom   10 type  2   force =    -0.00000002   -5.75204231  -75.89261063
     atom   11 type  2   force =     0.00000000   -7.56759297 -116.45949160
     atom   12 type  2   force =    -0.00000000  -11.61573999 -116.12545142
     atom   13 type  1   force =     0.00000052    2.62835354   33.04486202
     The local contribution  to forces
     atom    1 type  2   force =    -0.00000776  -10.69101010 -110.84892045
     atom    2 type  2   force =     0.00000386   -7.77071843 -111.20213613
     atom    3 type  2   force =    -0.00000014   -5.35147851  -70.67318141
     atom    4 type  2   force =     0.00000351   -6.28565511  -70.93528853
     atom    5 type  2   force =    -0.00000129   -1.82532508  -20.53109070
     atom    6 type  2   force =     0.00000127   -1.57415067  -20.55111174
     atom    7 type  2   force =    -0.00000241    2.13837927   26.73083920
     atom    8 type  2   force =     0.00000099    2.27181413   26.71052907
     atom    9 type  2   force =    -0.00000307    6.74100046   75.80118525
     atom   10 type  2   force =     0.00000406    5.76846156   75.88297595
     atom   11 type  2   force =    -0.00000328    7.55427756  116.59336545
     atom   12 type  2   force =     0.00000337   11.65108849  116.25246049
     atom   13 type  1   force =    -0.00000021   -2.62736584  -33.12448733
     The core correction contribution to forces
     atom    1 type  2   force =     0.00000016   -0.00066593   -0.00595045
     atom    2 type  2   force =     0.00000001   -0.00011850   -0.00638561
     atom    3 type  2   force =    -0.00000005   -0.00004530   -0.00090777
     atom    4 type  2   force =    -0.00000014   -0.00012408   -0.00135325
     atom    5 type  2   force =    -0.00000008   -0.00002690    0.00036882
     atom    6 type  2   force =     0.00000001    0.00008805    0.00032543
     atom    7 type  2   force =    -0.00000009   -0.00000990   -0.00014739
     atom    8 type  2   force =     0.00000002   -0.00001145   -0.00015360
     atom    9 type  2   force =    -0.00000002    0.00017585    0.00255434
     atom   10 type  2   force =     0.00000004    0.00024403    0.00253402
     atom   11 type  2   force =    -0.00000006   -0.00093985    0.00583003
     atom   12 type  2   force =     0.00000010    0.00188556    0.00560685
     atom   13 type  1   force =     0.00000000    0.00000000    0.00000000
     The Hubbard contrib.    to forces
     atom    1 type  2   force =     0.00000000    0.00000000    0.00000000
     atom    2 type  2   force =     0.00000000    0.00000000    0.00000000
     atom    3 type  2   force =     0.00000000    0.00000000    0.00000000
     atom    4 type  2   force =     0.00000000    0.00000000    0.00000000
     atom    5 type  2   force =     0.00000000    0.00000000    0.00000000
     atom    6 type  2   force =     0.00000000    0.00000000    0.00000000
     atom    7 type  2   force =     0.00000000    0.00000000    0.00000000
     atom    8 type  2   force =     0.00000000    0.00000000    0.00000000
     atom    9 type  2   force =     0.00000000    0.00000000    0.00000000
     atom   10 type  2   force =     0.00000000    0.00000000    0.00000000
     atom   11 type  2   force =     0.00000000    0.00000000    0.00000000
     atom   12 type  2   force =     0.00000000    0.00000000    0.00000000
     atom   13 type  1   force =     0.00000000    0.00000000    0.00000000
     The SCF correction term to forces
     atom    1 type  2   force =    -0.00000649    0.00011449   -0.00142934
     atom    2 type  2   force =     0.00000274   -0.00030376   -0.00141235
     atom    3 type  2   force =    -0.00000085   -0.00015617   -0.00058826
     atom    4 type  2   force =     0.00000610    0.00008837   -0.00049245
     atom    5 type  2   force =     0.00000157   -0.00010089   -0.00074657
     atom    6 type  2   force =    -0.00000168   -0.00005648   -0.00074184
     atom    7 type  2   force =     0.00000301    0.00008577   -0.00026510
     atom    8 type  2   force =    -0.00000124   -0.00010588   -0.00022903
     atom    9 type  2   force =     0.00000331   -0.00006878    0.00061079
     atom   10 type  2   force =    -0.00000422    0.00015634    0.00059625
     atom   11 type  2   force =     0.00000357    0.00020911    0.00028176
     atom   12 type  2   force =    -0.00000405   -0.00015520    0.00030804
     atom   13 type  1   force =    -0.00000045    0.00002106   -0.00022019

     DFT-D3 dispersion contribution to forces:
     atom    1 type  2   force =    -0.00000001    0.00120411   -0.00543377
     atom    2 type  2   force =     0.00000000   -0.00118043   -0.00529498
     atom    3 type  2   force =     0.00000000   -0.00028810   -0.00502743
     atom    4 type  2   force =     0.00000000   -0.00030945   -0.00375381
     atom    5 type  2   force =     0.00000000   -0.00019503   -0.00209032
     atom    6 type  2   force =     0.00000000   -0.00016501   -0.00209313
     atom    7 type  2   force =     0.00000000    0.00014148    0.00258253
     atom    8 type  2   force =     0.00000000    0.00028429    0.00256190
     atom    9 type  2   force =    -0.00000000    0.00054898    0.00514405
     atom   10 type  2   force =    -0.00000000    0.00030111    0.00516450
     atom   11 type  2   force =    -0.00000000    0.00186063    0.00377774
     atom   12 type  2   force =    -0.00000000   -0.00121652    0.00403148
     atom   13 type  1   force =     0.00000000   -0.00098605    0.00043123

     Total force =     0.042893     Total SCF correction =     0.002660


     Computing stress (Cartesian axis) and pressure


     negative rho (up, down):  3.159E-05 0.000E+00
          total   stress  (Ry/bohr**3)                   (kbar)     P=      -17.16
  -0.00010843  -0.00000000   0.00000000          -15.95       -0.00        0.00
  -0.00000000  -0.00013616   0.00000443           -0.00      -20.03        0.65
   0.00000000   0.00000443  -0.00010535            0.00        0.65      -15.50


     BFGS Geometry Optimization
     Energy error            =      0.0E+00 Ry
     Gradient error          =      3.3E-02 Ry/Bohr

     number of scf cycles    =   1
     number of bfgs steps    =   0

     energy             new  =   -1026.2386876900 Ry

     new trust radius        =       0.0330382371 bohr
     new conv_thr            =       0.0000010000 Ry


ATOMIC_POSITIONS (angstrom)
Ag            1.1754129698        1.1342241927       17.2560537088
Ag            3.5262442840        4.4989614747       16.9790172578
Ag            1.1754153547        3.5390939559       15.6878459173
Ag            3.5262458430        1.8714867424       15.8238525610
Ag            1.1754158855        0.9018221714       14.4008226077
Ag            3.5262467877        4.2625544070       14.1237522018
Ag            1.1754154846        3.3044863688       12.7405912504
Ag            3.5262468367        1.6203005094       12.8793099876
Ag            1.1754157195        0.6600558499       11.4875900148
Ag            3.5262468429        4.0234667386       11.2101318403
Ag            1.1754160074        3.0638509800        9.8315246154
Ag            3.5262453644        1.3808516695        9.9701879804
Li            1.1754141286        3.5420487490       19.2312367779



     Writing config-only to output data dir ./Ag_mp-10597_110_hollow_0/Ag_mp-10597_110_hollow_0.save/
     NEW-OLD atomic charge density approx. for the potential

     negative rho (up, down):  3.156E-05 0.000E+00

     total cpu time spent up to now is       35.0 secs

     per-process dynamical memory:   194.9 Mb

     Self-consistent Calculation

     iteration #  1     ecut=    55.00 Ry     beta= 0.30
     Davidson diagonalization with overlap
     ethr =  1.00E-06,  avg # of iterations =  4.0

     Threshold (ethr) on eigenvalues was too large:
     Diagonalizing with lowered threshold

     Davidson diagonalization with overlap
     ethr =  1.08E-08,  avg # of iterations =  6.6

     negative rho (up, down):  3.124E-05 0.000E+00

     total cpu time spent up to now is       40.4 secs

     total energy              =   -1026.24050405 Ry
     estimated scf accuracy    <       0.00002299 Ry

     iteration #  2     ecut=    55.00 Ry     beta= 0.30
     Davidson diagonalization with overlap
     ethr =  1.70E-08,  avg # of iterations =  2.0

     negative rho (up, down):  3.755E-05 0.000E+00

     total cpu time spent up to now is       41.7 secs

     total energy              =   -1026.24050202 Ry
     estimated scf accuracy    <       0.00003575 Ry

     iteration #  3     ecut=    55.00 Ry     beta= 0.30
     Davidson diagonalization with overlap
     ethr =  1.70E-08,  avg # of iterations =  1.5

     negative rho (up, down):  4.131E-05 0.000E+00

     total cpu time spent up to now is       42.9 secs

     total energy              =   -1026.24050268 Ry
     estimated scf accuracy    <       0.00009607 Ry

     iteration #  4     ecut=    55.00 Ry     beta= 0.30
     Davidson diagonalization with overlap
     ethr =  1.70E-08,  avg # of iterations =  1.0

     negative rho (up, down):  3.864E-05 0.000E+00

     total cpu time spent up to now is       44.0 secs

     total energy              =   -1026.24050674 Ry
     estimated scf accuracy    <       0.00001104 Ry

     iteration #  5     ecut=    55.00 Ry     beta= 0.30
     Davidson diagonalization with overlap
     ethr =  8.18E-09,  avg # of iterations =  1.1

     negative rho (up, down):  3.400E-05 0.000E+00

     total cpu time spent up to now is       45.1 secs

     total energy              =   -1026.24050788 Ry
     estimated scf accuracy    <       0.00000127 Ry

     iteration #  6     ecut=    55.00 Ry     beta= 0.30
     Davidson diagonalization with overlap
     ethr =  9.38E-10,  avg # of iterations =  2.1

     negative rho (up, down):  3.172E-05 0.000E+00

     total cpu time spent up to now is       46.3 secs

     End of self-consistent calculation

          k = 0.0000 0.0000 0.0000 ( 30377 PWs)   bands (ev):

   -46.5702  -5.1952  -4.1515  -3.9884  -3.8428  -3.7993  -3.7241  -3.6222
    -3.5162  -3.4970  -3.4473  -3.3655  -3.2571  -3.1595  -3.1439  -2.9852
    -2.8604  -2.8460  -2.8327  -2.8246  -2.7579  -2.7277  -2.7036  -2.6412
    -2.5309  -2.4635  -2.4324  -2.4181  -2.3876  -2.3808  -2.3772  -2.3554
    -2.3333  -2.2539  -2.1770  -2.1650  -2.1453  -2.0807  -2.0116  -2.0103
    -1.9873  -1.9701  -1.8451  -1.7713  -1.6890  -1.5618  -1.4869  -1.4508
    -1.4237  -1.3432  -1.3314  -1.3121  -1.3066  -1.1443  -1.0991  -1.0196
    -0.9936  -0.9696  -0.9464  -0.9421  -0.9394  -0.7958  -0.7507  -0.5229
     0.9365   2.3201   2.5093   2.6022   3.5045   3.7060   3.9918   4.2308
     4.3719   4.7606   5.2372   5.5419   5.5713   5.7443   5.8597   6.1608
     6.3607   6.5725

          k = 0.0000 0.1165 0.0000 ( 30371 PWs)   bands (ev):

   -46.5702  -5.0965  -4.1084  -3.9480  -3.8138  -3.7604  -3.7136  -3.6747
    -3.5784  -3.5320  -3.4993  -3.4798  -3.1977  -3.1540  -3.0936  -3.0677
    -2.9485  -2.8614  -2.8382  -2.7836  -2.7429  -2.6752  -2.6217  -2.6203
    -2.4830  -2.4325  -2.4305  -2.4020  -2.3775  -2.3645  -2.3408  -2.3299
    -2.3060  -2.2409  -2.2134  -2.1749  -2.1401  -2.0981  -2.0239  -2.0211
    -2.0045  -1.8856  -1.8832  -1.7845  -1.6341  -1.5595  -1.5060  -1.5010
    -1.4100  -1.3565  -1.3456  -1.3099  -1.3089  -1.1106  -1.0882  -1.0678
    -1.0368  -0.9853  -0.9562  -0.9407  -0.9026  -0.8021  -0.7618  -0.4852
     0.9984   1.5134   2.4119   2.6607   2.7636   3.6636   4.1104   4.3982
     4.8332   4.9704   5.4186   5.6090   5.6909   5.8848   5.9723   6.2497
     6.3980   6.7220

          k = 0.0000 0.2330 0.0000 ( 30367 PWs)   bands (ev):

   -46.5702  -4.8120  -4.0029  -3.8597  -3.8223  -3.7318  -3.7220  -3.6940
    -3.6649  -3.5915  -3.5674  -3.4832  -3.2299  -3.1615  -3.1572  -3.1087
    -2.9982  -2.9141  -2.8250  -2.7439  -2.6855  -2.6776  -2.5985  -2.5446
    -2.5334  -2.4443  -2.4032  -2.3835  -2.3457  -2.3302  -2.3213  -2.2894
    -2.2629  -2.1954  -2.1826  -2.1560  -2.1231  -2.0899  -2.0638  -1.9982
    -1.9396  -1.9273  -1.8039  -1.7394  -1.5898  -1.5657  -1.5326  -1.5268
    -1.4885  -1.3587  -1.3153  -1.3042  -1.2847  -1.1381  -1.1354  -1.1114
    -1.0543  -0.9589  -0.9288  -0.9260  -0.9097  -0.8077  -0.7622  -0.3342
     0.2554   1.2318   1.4171   2.6535   2.8848   3.4281   3.7215   4.5850
     4.8729   5.1544   5.7356   5.8454   5.9909   6.1141   6.4982   6.5076
     6.7687   7.0207

          k = 0.0000 0.3495 0.0000 ( 30339 PWs)   bands (ev):

   -46.5702  -4.3852  -3.9720  -3.9127  -3.8287  -3.7034  -3.6768  -3.6583
    -3.6413  -3.6244  -3.6169  -3.3614  -3.3430  -3.2470  -3.1505  -3.1413
    -2.9873  -2.9314  -2.8216  -2.7538  -2.7094  -2.6803  -2.6675  -2.5614
    -2.5135  -2.4906  -2.4896  -2.4290  -2.4271  -2.3580  -2.3557  -2.2797
    -2.2619  -2.2240  -2.2085  -2.0975  -2.0890  -1.9790  -1.9655  -1.8820
    -1.8579  -1.8216  -1.7464  -1.7048  -1.5761  -1.5588  -1.5298  -1.5104
    -1.4485  -1.3938  -1.3800  -1.2890  -1.1972  -1.1395  -1.1310  -1.0943
    -1.0338  -0.9668  -0.9267  -0.9074  -0.8810  -0.8075  -0.7534  -0.6632
     0.0362   0.3537   1.6756   1.8034   2.9865   3.2051   4.3487   4.5382
     4.9695   5.5841   5.6012   6.1102   6.1794   6.2846   6.5823   6.5864
     6.7964   6.8926

          k = 0.0000-0.4660 0.0000 ( 30242 PWs)   bands (ev):

   -46.5700  -4.0020  -3.9578  -3.9294  -3.9252  -3.7780  -3.6992  -3.6717
    -3.6139  -3.6102  -3.5775  -3.3841  -3.3706  -3.2194  -3.1730  -3.1044
    -2.9725  -2.8846  -2.8461  -2.8356  -2.7676  -2.6902  -2.6884  -2.5984
    -2.5498  -2.5287  -2.4839  -2.4552  -2.4533  -2.4079  -2.3761  -2.2724
    -2.2405  -2.2349  -2.2159  -2.0614  -2.0200  -1.9903  -1.9889  -1.8223
    -1.8017  -1.7451  -1.6725  -1.6499  -1.6328  -1.5677  -1.5110  -1.4919
    -1.3885  -1.3826  -1.3509  -1.2821  -1.2123  -1.1998  -1.1745  -1.0640
    -1.0491  -0.9503  -0.9479  -0.8952  -0.8785  -0.8014  -0.7503  -0.5751
    -0.5108   0.7581   0.8877   2.2073   2.5290   3.3083   4.3283   5.1322
     5.3889   5.4581   5.5044   6.1851   6.3066   6.3348   6.4752   6.5123
     6.6477   6.8569

          k = 0.1250-0.0000 0.0000 ( 30357 PWs)   bands (ev):

   -46.5701  -5.0767  -4.0769  -3.9586  -3.9196  -3.8011  -3.6874  -3.5475
    -3.5219  -3.4443  -3.4174  -3.3118  -3.2392  -3.1394  -3.0495  -2.9962
    -2.9558  -2.9197  -2.8705  -2.8352  -2.8267  -2.7361  -2.6908  -2.6394
    -2.5887  -2.4947  -2.4845  -2.4716  -2.4624  -2.4386  -2.3382  -2.2859
    -2.2278  -2.1837  -2.1719  -2.1412  -2.1083  -2.0947  -2.0656  -2.0066
    -1.9582  -1.9403  -1.8123  -1.6785  -1.6719  -1.6124  -1.4812  -1.4272
    -1.3647  -1.3522  -1.3412  -1.3169  -1.1759  -1.0988  -1.0718  -1.0694
    -1.0596  -1.0207  -0.9979  -0.9420  -0.9234  -0.8674  -0.8326  -0.4428
     1.0383   1.6940   2.4153   2.6559   3.1814   3.6071   3.7341   4.1157
     4.3687   4.8677   5.0153   5.3774   5.6566   5.6772   5.8758   6.2759
     6.6274   6.8911

          k = 0.1250 0.1165 0.0000 ( 30355 PWs)   bands (ev):

   -46.5701  -4.9807  -4.0525  -3.9186  -3.8860  -3.7760  -3.7126  -3.6269
    -3.5627  -3.5186  -3.4472  -3.3402  -3.1778  -3.1451  -3.0821  -2.9961
    -2.9660  -2.9363  -2.8642  -2.8375  -2.7768  -2.6869  -2.6582  -2.6280
    -2.6099  -2.5766  -2.4919  -2.4398  -2.4180  -2.3535  -2.3106  -2.2970
    -2.2327  -2.2163  -2.1479  -2.1266  -2.1011  -2.0779  -2.0024  -1.9884
    -1.9607  -1.8739  -1.8458  -1.6965  -1.6258  -1.5929  -1.5099  -1.4383
    -1.4049  -1.3550  -1.3445  -1.3086  -1.1717  -1.0997  -1.0838  -1.0712
    -1.0639  -1.0397  -1.0345  -0.9603  -0.8842  -0.8733  -0.8435  -0.4150
     1.0941   1.5598   1.9223   2.5082   2.7573   3.3243   3.7780   4.2629
     4.8639   4.9406   4.9902   5.5557   5.7259   5.7917   6.0074   6.3108
     6.7783   6.9719

          k = 0.1250 0.2330 0.0000 ( 30324 PWs)   bands (ev):

   -46.5701  -4.7064  -4.0069  -3.8333  -3.8064  -3.7919  -3.7744  -3.7101
    -3.6798  -3.5524  -3.4389  -3.3190  -3.1947  -3.1733  -3.1246  -3.0698
    -3.0294  -2.9151  -2.8895  -2.7769  -2.7278  -2.6936  -2.6494  -2.5912
    -2.5573  -2.5199  -2.4867  -2.4497  -2.4281  -2.3784  -2.3325  -2.2719
    -2.2369  -2.1853  -2.1689  -2.1418  -2.0235  -2.0063  -1.9836  -1.9343
    -1.8986  -1.7576  -1.7198  -1.7056  -1.6161  -1.5508  -1.5443  -1.4758
    -1.4473  -1.3559  -1.3167  -1.2867  -1.2274  -1.1818  -1.1468  -1.0764
    -1.0450  -1.0168  -0.9999  -0.9187  -0.8994  -0.8719  -0.8357  -0.2870
     0.2863   1.3209   1.5014   2.5019   2.7445   2.9713   3.7512   3.8385
     4.6244   5.2071   5.2773   5.7643   5.8279   5.9539   6.1733   6.3668
     6.8987   7.1555

          k = 0.1250 0.3495 0.0000 ( 30314 PWs)   bands (ev):

   -46.5701  -4.3061  -3.9868  -3.9059  -3.8803  -3.8507  -3.7257  -3.6475
    -3.6301  -3.4729  -3.4046  -3.3410  -3.2740  -3.2532  -3.1854  -3.0833
    -3.0314  -2.8931  -2.8526  -2.7734  -2.7305  -2.7159  -2.6604  -2.5940
    -2.5673  -2.5390  -2.5121  -2.4964  -2.4635  -2.4243  -2.3997  -2.2445
    -2.2063  -2.1829  -2.1716  -2.1187  -2.0103  -1.9744  -1.9454  -1.8478
    -1.8121  -1.7383  -1.6532  -1.6085  -1.5671  -1.5181  -1.4811  -1.4642
    -1.4393  -1.3592  -1.3198  -1.2823  -1.2003  -1.1754  -1.1012  -1.0759
    -1.0342  -0.9998  -0.9804  -0.9413  -0.8963  -0.8550  -0.8136  -0.6406
     0.0731   0.4301   1.7527   1.8884   3.0651   3.2319   3.3033   4.3271
     4.5826   4.9804   5.0330   5.6300   5.6686   6.0043   6.1293   6.3485
     6.6157   6.9181

          k = 0.1250-0.4660 0.0000 ( 30312 PWs)   bands (ev):

   -46.5701  -3.9705  -3.9666  -3.9418  -3.9260  -3.8827  -3.8510  -3.5843
    -3.5666  -3.4211  -3.3924  -3.3663  -3.3642  -3.2516  -3.2494  -3.0236
    -2.9862  -2.8620  -2.8451  -2.8044  -2.7871  -2.7401  -2.7127  -2.6223
    -2.5746  -2.5620  -2.5384  -2.5084  -2.4718  -2.4560  -2.3916  -2.2319
    -2.2183  -2.1878  -2.1623  -2.0609  -2.0161  -1.9737  -1.9354  -1.8216
    -1.7952  -1.6857  -1.6787  -1.6051  -1.5832  -1.4932  -1.4118  -1.3998
    -1.3926  -1.3410  -1.3199  -1.2222  -1.2139  -1.1532  -1.1262  -1.0662
    -1.0542  -1.0032  -0.9771  -0.9575  -0.9507  -0.8774  -0.8300  -0.5052
    -0.4461   0.8161   0.9581   2.2826   2.5965   3.3788   4.0728   4.1122
     4.3879   4.9544   5.1262   5.2261   5.5461   6.0751   6.2491   6.3173
     6.6018   6.9811

          k = 0.1250-0.3495 0.0000 ( 30314 PWs)   bands (ev):

   -46.5701  -4.3061  -3.9868  -3.9059  -3.8803  -3.8507  -3.7257  -3.6475
    -3.6301  -3.4729  -3.4046  -3.3410  -3.2740  -3.2532  -3.1854  -3.0833
    -3.0314  -2.8931  -2.8526  -2.7734  -2.7305  -2.7159  -2.6604  -2.5940
    -2.5673  -2.5390  -2.5121  -2.4964  -2.4635  -2.4243  -2.3997  -2.2445
    -2.2063  -2.1829  -2.1716  -2.1187  -2.0103  -1.9744  -1.9454  -1.8478
    -1.8121  -1.7383  -1.6532  -1.6085  -1.5671  -1.5181  -1.4811  -1.4642
    -1.4393  -1.3592  -1.3198  -1.2823  -1.2003  -1.1754  -1.1012  -1.0759
    -1.0342  -0.9998  -0.9804  -0.9413  -0.8963  -0.8550  -0.8136  -0.6406
     0.0731   0.4301   1.7527   1.8884   3.0651   3.2319   3.3033   4.3271
     4.5826   4.9804   5.0330   5.6300   5.6686   6.0043   6.1293   6.3485
     6.6157   6.9180

          k = 0.1250-0.2330 0.0000 ( 30324 PWs)   bands (ev):

   -46.5701  -4.7064  -4.0069  -3.8333  -3.8064  -3.7919  -3.7744  -3.7101
    -3.6798  -3.5524  -3.4389  -3.3190  -3.1947  -3.1733  -3.1246  -3.0698
    -3.0294  -2.9151  -2.8895  -2.7769  -2.7278  -2.6936  -2.6494  -2.5912
    -2.5573  -2.5199  -2.4867  -2.4497  -2.4281  -2.3784  -2.3325  -2.2719
    -2.2369  -2.1853  -2.1689  -2.1418  -2.0235  -2.0063  -1.9836  -1.9343
    -1.8986  -1.7576  -1.7198  -1.7056  -1.6161  -1.5508  -1.5443  -1.4758
    -1.4473  -1.3560  -1.3167  -1.2867  -1.2274  -1.1818  -1.1468  -1.0764
    -1.0450  -1.0168  -0.9999  -0.9187  -0.8994  -0.8719  -0.8357  -0.2870
     0.2863   1.3209   1.5014   2.5019   2.7445   2.9713   3.7512   3.8385
     4.6244   5.2072   5.2773   5.7643   5.8279   5.9539   6.1733   6.3668
     6.8986   7.1561

          k = 0.1250-0.1165 0.0000 ( 30355 PWs)   bands (ev):

   -46.5701  -4.9807  -4.0525  -3.9186  -3.8860  -3.7760  -3.7126  -3.6269
    -3.5627  -3.5186  -3.4472  -3.3402  -3.1778  -3.1451  -3.0821  -2.9961
    -2.9660  -2.9363  -2.8642  -2.8375  -2.7768  -2.6869  -2.6582  -2.6280
    -2.6099  -2.5766  -2.4919  -2.4398  -2.4180  -2.3535  -2.3106  -2.2970
    -2.2327  -2.2163  -2.1479  -2.1266  -2.1011  -2.0779  -2.0024  -1.9884
    -1.9607  -1.8739  -1.8458  -1.6965  -1.6258  -1.5929  -1.5099  -1.4383
    -1.4049  -1.3550  -1.3445  -1.3086  -1.1717  -1.0997  -1.0838  -1.0712
    -1.0639  -1.0397  -1.0345  -0.9603  -0.8842  -0.8733  -0.8435  -0.4150
     1.0941   1.5598   1.9223   2.5082   2.7573   3.3243   3.7780   4.2629
     4.8639   4.9406   4.9902   5.5557   5.7259   5.7917   6.0074   6.3108
     6.7783   6.9719

          k = 0.2500-0.0000 0.0000 ( 30361 PWs)   bands (ev):

   -46.5701  -4.7387  -4.0285  -3.8882  -3.8654  -3.6922  -3.5916  -3.5312
    -3.4821  -3.4558  -3.3387  -3.2439  -3.1629  -3.0923  -3.0874  -3.0458
    -2.9825  -2.9307  -2.9218  -2.8780  -2.8671  -2.8126  -2.7406  -2.6162
    -2.5780  -2.5599  -2.5200  -2.5043  -2.4934  -2.4884  -2.3963  -2.2829
    -2.2430  -2.2092  -2.1971  -2.1525  -2.0737  -2.0570  -1.9598  -1.9548
    -1.8677  -1.7400  -1.7066  -1.6975  -1.5555  -1.5396  -1.4584  -1.3787
    -1.3650  -1.3496  -1.3363  -1.3220  -1.3117  -1.2506  -1.1825  -1.1073
    -1.0411  -0.9947  -0.9898  -0.9563  -0.9317  -0.8830  -0.8443  -0.2225
     0.3591   1.3490   1.7475   2.6933   2.8432   3.3786   3.7209   3.9249
     4.4431   4.7361   4.8132   5.1855   5.7695   5.9148   5.9982   6.2151
     6.3687   6.8742

          k = 0.2500 0.1165 0.0000 ( 30338 PWs)   bands (ev):

   -46.5701  -4.6515  -3.9969  -3.9219  -3.8191  -3.7088  -3.6873  -3.5451
    -3.4931  -3.4787  -3.3384  -3.2561  -3.2105  -3.1488  -3.1197  -3.0256
    -2.9601  -2.9389  -2.9197  -2.8648  -2.7982  -2.7525  -2.7186  -2.6486
    -2.6412  -2.6099  -2.5531  -2.5113  -2.4619  -2.4143  -2.3453  -2.3163
    -2.2343  -2.1986  -2.1479  -2.1276  -2.0059  -1.9913  -1.9087  -1.8659
    -1.8258  -1.7466  -1.7316  -1.6793  -1.5669  -1.5269  -1.4618  -1.3978
    -1.3720  -1.3616  -1.3268  -1.3145  -1.2794  -1.2625  -1.1701  -1.1545
    -1.0654  -1.0330  -1.0040  -0.9793  -0.9353  -0.8772  -0.8228  -0.2019
     0.5917   1.3907   1.7162   1.9057   2.7979   3.0050   3.5429   4.1017
     4.4764   4.5834   4.9198   5.2510   5.6946   5.9527   6.0272   6.1385
     6.3648   6.9072

          k = 0.2500 0.2330 0.0000 ( 30302 PWs)   bands (ev):

   -46.5701  -4.4114  -4.0017  -3.9064  -3.8714  -3.7048  -3.7026  -3.6125
    -3.5907  -3.4649  -3.3872  -3.2919  -3.2062  -3.1813  -3.1124  -3.0473
    -3.0153  -2.9229  -2.9153  -2.8662  -2.7933  -2.7495  -2.7097  -2.6875
    -2.6238  -2.5616  -2.5507  -2.4762  -2.4549  -2.4055  -2.3676  -2.2335
    -2.2128  -2.1595  -2.0931  -2.0842  -1.9564  -1.9241  -1.8600  -1.7878
    -1.7068  -1.6942  -1.6440  -1.5904  -1.5473  -1.5091  -1.4865  -1.4512
    -1.3489  -1.3361  -1.3125  -1.2931  -1.2651  -1.2613  -1.1960  -1.1511
    -1.0688  -1.0423  -1.0179  -0.9826  -0.9583  -0.8474  -0.8334  -0.0896
     0.4527   1.1150   1.5994   1.7770   2.2149   3.0077   3.3249   3.7215
     4.0912   4.2824   4.6520   5.2690   5.4624   5.6521   5.8737   6.2243
     6.4435   6.7243

          k = 0.2500 0.3495 0.0000 ( 30286 PWs)   bands (ev):

   -46.5701  -4.1090  -4.0644  -3.9648  -3.8273  -3.7860  -3.7648  -3.5783
    -3.5231  -3.3972  -3.3677  -3.3278  -3.2677  -3.2202  -3.1364  -3.1054
    -3.0675  -2.9527  -2.9033  -2.8372  -2.7881  -2.7253  -2.7183  -2.6337
    -2.6071  -2.5662  -2.5433  -2.5148  -2.4483  -2.4270  -2.3676  -2.2496
    -2.1798  -2.1656  -2.1416  -1.9897  -1.9321  -1.8328  -1.7846  -1.7515
    -1.6848  -1.6492  -1.6160  -1.5595  -1.5318  -1.4924  -1.4164  -1.3781
    -1.3091  -1.2850  -1.2577  -1.2272  -1.2104  -1.1964  -1.1658  -1.1500
    -1.0996  -1.0072  -0.9946  -0.9678  -0.8926  -0.8589  -0.8345  -0.5180
     0.2455   0.6726   1.7854   1.9911   2.1321   2.8028   3.2745   3.4116
     3.4721   4.0701   4.3699   4.8283   5.2694   5.4762   5.6941   6.1288
     6.6239   6.7794

          k = 0.2500-0.4660 0.0000 ( 30312 PWs)   bands (ev):

   -46.5701  -4.0890  -4.0386  -3.8824  -3.8514  -3.7983  -3.7783  -3.5414
    -3.5378  -3.3743  -3.3313  -3.2801  -3.2485  -3.2424  -3.2341  -3.1578
    -3.1067  -2.9115  -2.8626  -2.8390  -2.7811  -2.7335  -2.7239  -2.6157
    -2.6046  -2.5930  -2.5516  -2.5145  -2.4917  -2.4178  -2.3584  -2.2500
    -2.1813  -2.1533  -2.1480  -1.9145  -1.9026  -1.8757  -1.8267  -1.7253
    -1.6856  -1.6509  -1.6392  -1.5488  -1.5167  -1.4467  -1.4051  -1.3151
    -1.2837  -1.2483  -1.2411  -1.2194  -1.1824  -1.1360  -1.1244  -1.0559
    -1.0476  -1.0321  -1.0216  -0.9624  -0.9527  -0.9140  -0.8983  -0.3495
    -0.3011   1.0329   1.1893   2.4648   2.5219   2.5894   2.8017   3.4578
     3.4770   3.6177   4.3572   4.7583   5.1552   5.3216   5.5622   6.3400
     6.6232   6.8518

          k = 0.2500-0.3495 0.0000 ( 30286 PWs)   bands (ev):

   -46.5701  -4.1090  -4.0644  -3.9648  -3.8273  -3.7860  -3.7648  -3.5783
    -3.5231  -3.3972  -3.3677  -3.3278  -3.2677  -3.2202  -3.1364  -3.1054
    -3.0675  -2.9527  -2.9033  -2.8372  -2.7881  -2.7253  -2.7183  -2.6337
    -2.6071  -2.5662  -2.5433  -2.5148  -2.4483  -2.4270  -2.3676  -2.2496
    -2.1798  -2.1656  -2.1416  -1.9897  -1.9321  -1.8328  -1.7846  -1.7515
    -1.6848  -1.6492  -1.6160  -1.5595  -1.5318  -1.4924  -1.4164  -1.3781
    -1.3091  -1.2850  -1.2577  -1.2272  -1.2104  -1.1964  -1.1658  -1.1500
    -1.0996  -1.0072  -0.9946  -0.9678  -0.8926  -0.8589  -0.8345  -0.5180
     0.2455   0.6726   1.7854   1.9911   2.1321   2.8028   3.2745   3.4116
     3.4721   4.0701   4.3699   4.8283   5.2694   5.4762   5.6941   6.1288
     6.6239   6.7795

          k = 0.2500-0.2330 0.0000 ( 30302 PWs)   bands (ev):

   -46.5701  -4.4114  -4.0017  -3.9064  -3.8714  -3.7048  -3.7026  -3.6125
    -3.5907  -3.4649  -3.3872  -3.2919  -3.2062  -3.1813  -3.1124  -3.0473
    -3.0153  -2.9229  -2.9153  -2.8662  -2.7933  -2.7495  -2.7097  -2.6875
    -2.6238  -2.5616  -2.5507  -2.4762  -2.4549  -2.4055  -2.3676  -2.2335
    -2.2128  -2.1595  -2.0931  -2.0842  -1.9564  -1.9241  -1.8600  -1.7878
    -1.7068  -1.6942  -1.6440  -1.5904  -1.5473  -1.5091  -1.4865  -1.4512
    -1.3489  -1.3361  -1.3125  -1.2931  -1.2651  -1.2613  -1.1960  -1.1511
    -1.0688  -1.0423  -1.0179  -0.9826  -0.9583  -0.8474  -0.8334  -0.0896
     0.4527   1.1150   1.5994   1.7770   2.2149   3.0077   3.3249   3.7215
     4.0912   4.2824   4.6520   5.2690   5.4624   5.6521   5.8737   6.2243
     6.4435   6.7243

          k = 0.2500-0.1165 0.0000 ( 30338 PWs)   bands (ev):

   -46.5701  -4.6515  -3.9969  -3.9219  -3.8191  -3.7088  -3.6873  -3.5451
    -3.4931  -3.4787  -3.3384  -3.2561  -3.2105  -3.1488  -3.1197  -3.0256
    -2.9601  -2.9389  -2.9197  -2.8648  -2.7982  -2.7525  -2.7186  -2.6486
    -2.6412  -2.6099  -2.5531  -2.5113  -2.4619  -2.4143  -2.3453  -2.3163
    -2.2343  -2.1986  -2.1479  -2.1276  -2.0059  -1.9913  -1.9087  -1.8659
    -1.8258  -1.7466  -1.7316  -1.6793  -1.5669  -1.5269  -1.4618  -1.3978
    -1.3720  -1.3616  -1.3268  -1.3145  -1.2794  -1.2625  -1.1701  -1.1545
    -1.0654  -1.0330  -1.0040  -0.9793  -0.9353  -0.8772  -0.8228  -0.2019
     0.5917   1.3907   1.7162   1.9057   2.7979   3.0050   3.5429   4.1017
     4.4764   4.5834   4.9198   5.2510   5.6946   5.9527   6.0272   6.1385
     6.3648   6.9072

          k = 0.3750-0.0000 0.0000 ( 30267 PWs)   bands (ev):

   -46.5700  -4.2581  -4.0154  -3.7741  -3.7043  -3.6284  -3.5501  -3.4966
    -3.4846  -3.4531  -3.4498  -3.2377  -3.1597  -3.0795  -3.0648  -2.9767
    -2.9649  -2.9627  -2.9030  -2.8777  -2.8298  -2.7552  -2.6944  -2.6560
    -2.5897  -2.5741  -2.5535  -2.5243  -2.5059  -2.5015  -2.3791  -2.3665
    -2.2833  -2.2372  -2.1969  -2.1150  -2.1075  -2.0295  -1.9657  -1.9470
    -1.7999  -1.7368  -1.7100  -1.6552  -1.5804  -1.5371  -1.5274  -1.4673
    -1.4188  -1.3764  -1.2583  -1.2427  -1.2095  -1.2011  -1.1516  -1.1085
    -1.0588  -1.0011  -0.9961  -0.9197  -0.9063  -0.8727  -0.8046  -0.7274
     0.2336   0.4886   1.8882   2.1107   3.0823   3.2429   3.5994   3.7170
     4.4030   4.7975   4.9611   5.1145   5.7063   6.0715   6.4036   6.4900
     6.5856   6.8290

          k = 0.3750 0.1165 0.0000 ( 30287 PWs)   bands (ev):

   -46.5701  -4.1864  -3.9859  -3.7897  -3.7171  -3.6712  -3.6336  -3.5411
    -3.5060  -3.4271  -3.3601  -3.3196  -3.2872  -3.1106  -3.0730  -3.0489
    -2.9391  -2.9286  -2.9163  -2.8874  -2.8073  -2.7861  -2.6921  -2.6612
    -2.6188  -2.5765  -2.5485  -2.5205  -2.4573  -2.4049  -2.3646  -2.2807
    -2.2433  -2.2197  -2.1408  -2.0724  -2.0413  -2.0200  -1.8945  -1.8537
    -1.8075  -1.6963  -1.6845  -1.6024  -1.5765  -1.5649  -1.5430  -1.4781
    -1.4302  -1.3860  -1.2988  -1.2583  -1.2201  -1.1849  -1.1720  -1.1168
    -1.0701  -1.0186  -0.9892  -0.9234  -0.9020  -0.8400  -0.8146  -0.4947
     0.2710   0.5901   1.9202   2.1602   2.1815   3.2745   3.5529   3.6841
     3.7277   4.5331   4.9063   5.0844   5.4428   5.7837   6.0514   6.4761
     6.6468   6.7972

          k = 0.3750 0.2330 0.0000 ( 30255 PWs)   bands (ev):

   -46.5700  -4.0175  -3.9424  -3.9009  -3.8353  -3.6583  -3.6062  -3.5897
    -3.5071  -3.4816  -3.4249  -3.3780  -3.3117  -3.1518  -3.1195  -3.0776
    -2.9914  -2.9777  -2.9303  -2.8754  -2.8730  -2.8318  -2.7448  -2.6583
    -2.6113  -2.5602  -2.5205  -2.4601  -2.3552  -2.3160  -2.2786  -2.2170
    -2.1656  -2.1483  -2.1004  -2.0433  -1.9322  -1.8828  -1.8604  -1.7284
    -1.7046  -1.6523  -1.6204  -1.6062  -1.5490  -1.5221  -1.4947  -1.4502
    -1.3916  -1.3565  -1.3160  -1.2445  -1.2152  -1.1830  -1.1400  -1.1202
    -1.0488  -1.0168  -0.9586  -0.9350  -0.9079  -0.8416  -0.7984  -0.0418
     0.4196   0.8425   0.9794   2.0963   2.1976   2.4694   2.9094   3.4464
     3.6995   3.8094   4.0780   4.6859   5.2410   5.4140   5.7273   6.2291
     6.5724   6.8349

          k = 0.3750 0.3495 0.0000 ( 30296 PWs)   bands (ev):

   -46.5701  -4.0491  -3.9961  -3.8201  -3.7794  -3.7777  -3.6823  -3.5800
    -3.4845  -3.4324  -3.4053  -3.3558  -3.3132  -3.1801  -3.1468  -3.1169
    -3.0499  -3.0021  -2.9652  -2.9078  -2.8860  -2.8303  -2.8174  -2.6465
    -2.6265  -2.5021  -2.4417  -2.3987  -2.3669  -2.3376  -2.2320  -2.2069
    -2.1434  -2.0925  -2.0823  -1.9375  -1.9110  -1.8432  -1.7818  -1.7408
    -1.6749  -1.6279  -1.6066  -1.5547  -1.4998  -1.4762  -1.4291  -1.3732
    -1.3210  -1.2976  -1.2517  -1.1689  -1.1508  -1.1198  -1.0749  -1.0416
    -1.0164  -0.9946  -0.9806  -0.9457  -0.8530  -0.8140  -0.6002  -0.0594
     0.5073   0.7287   1.1675   1.3712   1.9832   2.3748   2.6621   2.7470
     3.0512   3.5657   3.6727   4.4446   4.8957   5.0461   5.6099   6.1840
     6.4872   6.8756

          k = 0.3750-0.4660 0.0000 ( 30298 PWs)   bands (ev):

   -46.5701  -4.0860  -4.0323  -3.8383  -3.7938  -3.7074  -3.6606  -3.5667
    -3.5339  -3.4657  -3.4179  -3.2975  -3.2619  -3.1544  -3.1457  -3.1320
    -3.0959  -3.0584  -2.9771  -2.8967  -2.8837  -2.8088  -2.7621  -2.6872
    -2.6379  -2.5241  -2.4778  -2.3505  -2.3177  -2.2670  -2.2234  -2.2150
    -2.1695  -2.0707  -2.0580  -1.9699  -1.9529  -1.8135  -1.7695  -1.7467
    -1.7159  -1.6019  -1.5876  -1.5234  -1.4733  -1.4647  -1.4114  -1.3743
    -1.3167  -1.2616  -1.2081  -1.1520  -1.1150  -1.0234  -1.0152  -1.0117
    -0.9982  -0.9860  -0.9790  -0.8401  -0.8366  -0.7191  -0.7001   0.0576
     0.0946   1.1576   1.1820   1.5012   1.6290   2.0284   2.1788   2.8818
     3.0525   3.2847   3.4884   4.3725   4.8090   4.8817   5.5418   6.1744
     6.5252   7.0722

          k = 0.3750-0.3495 0.0000 ( 30296 PWs)   bands (ev):

   -46.5701  -4.0491  -3.9961  -3.8201  -3.7794  -3.7777  -3.6823  -3.5800
    -3.4845  -3.4324  -3.4053  -3.3558  -3.3132  -3.1801  -3.1468  -3.1169
    -3.0499  -3.0021  -2.9652  -2.9078  -2.8860  -2.8303  -2.8174  -2.6465
    -2.6265  -2.5021  -2.4417  -2.3987  -2.3669  -2.3376  -2.2320  -2.2069
    -2.1434  -2.0925  -2.0823  -1.9375  -1.9110  -1.8432  -1.7818  -1.7408
    -1.6749  -1.6279  -1.6066  -1.5547  -1.4998  -1.4762  -1.4291  -1.3732
    -1.3210  -1.2976  -1.2517  -1.1689  -1.1508  -1.1198  -1.0749  -1.0416
    -1.0164  -0.9946  -0.9806  -0.9457  -0.8530  -0.8140  -0.6002  -0.0594
     0.5073   0.7287   1.1675   1.3712   1.9832   2.3748   2.6621   2.7470
     3.0512   3.5657   3.6727   4.4446   4.8957   5.0461   5.6099   6.1840
     6.4872   6.8755

          k = 0.3750-0.2330 0.0000 ( 30255 PWs)   bands (ev):

   -46.5700  -4.0175  -3.9424  -3.9009  -3.8353  -3.6583  -3.6062  -3.5897
    -3.5071  -3.4816  -3.4249  -3.3780  -3.3117  -3.1518  -3.1195  -3.0776
    -2.9914  -2.9777  -2.9303  -2.8754  -2.8730  -2.8318  -2.7448  -2.6583
    -2.6113  -2.5602  -2.5205  -2.4601  -2.3552  -2.3160  -2.2786  -2.2170
    -2.1656  -2.1483  -2.1004  -2.0433  -1.9322  -1.8828  -1.8604  -1.7284
    -1.7046  -1.6523  -1.6204  -1.6062  -1.5490  -1.5221  -1.4947  -1.4502
    -1.3916  -1.3565  -1.3160  -1.2445  -1.2152  -1.1830  -1.1400  -1.1202
    -1.0488  -1.0168  -0.9586  -0.9350  -0.9079  -0.8416  -0.7984  -0.0418
     0.4196   0.8425   0.9794   2.0963   2.1976   2.4694   2.9094   3.4464
     3.6995   3.8094   4.0780   4.6859   5.2410   5.4140   5.7273   6.2291
     6.5724   6.8349

[...]
    -3.4642  -3.3976  -3.3316  -3.2950  -3.2888  -3.2439  -3.2105  -3.0625
    -3.0320  -2.8874  -2.8437  -2.7791  -2.7576  -2.6999  -2.6247  -2.5625
    -2.5059  -2.4698  -2.4115  -2.3091  -2.2784  -2.2303  -2.1638  -2.0974
    -2.0331  -1.9808  -1.9588  -1.9280  -1.8686  -1.8116  -1.7839  -1.7414
    -1.6841  -1.6429  -1.6015  -1.5141  -1.4800  -1.4651  -1.4128  -1.3897
    -1.3786  -1.3337  -1.2888  -1.2753  -1.1874  -1.1192  -0.9681  -0.4449
     0.1450   0.3457   0.7856   0.9738   1.6110   2.0735   2.3415   2.4998
     2.6818   3.5715   3.6946   4.7115   4.7605   5.3375   6.3663   6.9581
     7.0874   7.2206

          k = 0.3750-0.2330 0.0000 ( 30255 PWs)   bands (ev):

   -45.5508  -4.3831  -4.2864  -4.2587  -4.2114  -4.0122  -3.9799  -3.9471
    -3.8825  -3.8574  -3.7874  -3.7403  -3.7114  -3.6099  -3.5176  -3.4712
    -3.3650  -3.3495  -3.3212  -3.2933  -3.2517  -3.1960  -3.1537  -3.0773
    -2.9997  -2.9661  -2.9051  -2.8376  -2.7324  -2.6930  -2.6515  -2.6139
    -2.5329  -2.4913  -2.4484  -2.3997  -2.2884  -2.2664  -2.2204  -2.1224
    -2.0767  -2.0488  -1.9904  -1.9513  -1.9147  -1.8646  -1.8429  -1.8167
    -1.7328  -1.6961  -1.6705  -1.6117  -1.5682  -1.5289  -1.4967  -1.4546
    -1.4049  -1.3313  -1.3043  -1.2748  -1.2407  -1.1652  -1.1023  -0.4083
     0.0775   0.4372   0.5819   1.7559   2.0304   2.0834   2.5325   3.3688
     3.6100   3.7971   3.8658   5.0833   5.2775   5.4685   6.2111   6.6179
     7.0232   7.2960

          k = 0.3750-0.1165 0.0000 ( 30287 PWs)   bands (ev):

   -45.5508  -4.5575  -4.3461  -4.1392  -4.0841  -4.0423  -4.0042  -3.9051
    -3.8733  -3.7844  -3.7495  -3.6923  -3.6725  -3.5614  -3.4622  -3.4239
    -3.3587  -3.3189  -3.2837  -3.2668  -3.1943  -3.1653  -3.0730  -3.0539
    -3.0215  -2.9615  -2.9133  -2.8965  -2.8146  -2.7893  -2.7358  -2.6534
    -2.6028  -2.5787  -2.5408  -2.4632  -2.4226  -2.3924  -2.2976  -2.2308
    -2.1645  -2.0561  -2.0347  -1.9613  -1.9443  -1.9078  -1.8921  -1.8566
    -1.7802  -1.7434  -1.6514  -1.6385  -1.5564  -1.5472  -1.5008  -1.4778
    -1.4092  -1.3659  -1.3243  -1.2682  -1.2175  -1.1677  -1.1068  -0.8672
    -0.0523   0.1895   1.6540   1.7884   1.9679   3.0185   3.3260   3.6978
     3.7268   4.5031   4.7960   5.2329   5.5750   6.0408   6.3129   6.6215
     6.6300   6.8848

          k =-0.5000 0.0000 0.0000 ( 30196 PWs)   bands (ev):

   -45.5507  -4.2754  -4.2409  -4.2370  -4.1786  -3.9348  -3.9082  -3.9010
    -3.8493  -3.7888  -3.7420  -3.6727  -3.6374  -3.4278  -3.4153  -3.3859
    -3.3132  -3.2957  -3.2826  -3.1999  -3.1701  -3.1077  -3.0911  -3.0640
    -3.0248  -2.9869  -2.9263  -2.8672  -2.8576  -2.8267  -2.7794  -2.7295
    -2.6901  -2.6296  -2.5982  -2.4958  -2.4757  -2.3594  -2.3401  -2.2956
    -2.2815  -2.2222  -2.1834  -2.0983  -2.0850  -1.9446  -1.9313  -1.7322
    -1.7034  -1.6711  -1.6392  -1.5879  -1.5610  -1.5534  -1.5058  -1.3560
    -1.3461  -1.3138  -1.2943  -1.2475  -1.2429  -1.1880  -1.1831  -0.8775
    -0.8466   0.6646   0.6970   2.5967   2.6385   2.9101   3.0942   4.1479
     4.3528   4.5167   4.7262   5.8212   6.1042   6.3301   6.3629   6.3826
     6.5727   6.7682

          k =-0.5000 0.1165 0.0000 ( 30222 PWs)   bands (ev):

   -45.5508  -4.2285  -4.2181  -4.1937  -4.1221  -4.0149  -3.9866  -3.9693
    -3.9252  -3.7885  -3.7508  -3.6585  -3.6234  -3.5361  -3.4840  -3.4154
    -3.3483  -3.3389  -3.2905  -3.2836  -3.2183  -3.1438  -3.1305  -3.0364
    -2.9972  -2.8854  -2.8585  -2.8509  -2.7779  -2.7662  -2.7338  -2.6921
    -2.6849  -2.5101  -2.4714  -2.4592  -2.4434  -2.3372  -2.3364  -2.2760
    -2.2629  -2.2010  -2.1958  -2.0188  -1.9742  -1.9512  -1.9298  -1.7847
    -1.7628  -1.6746  -1.6122  -1.5909  -1.5606  -1.4690  -1.4479  -1.3610
    -1.3556  -1.3170  -1.3065  -1.2520  -1.2461  -1.1703  -1.1691  -0.8006
    -0.7693   0.7058   0.7512   2.2851   2.4640   2.6719   2.7440   3.6199
     3.9127   4.2176   4.5286   5.5442   5.7546   5.7776   6.2337   6.8316
     7.0148   7.1254

          k =-0.5000 0.2330 0.0000 ( 30230 PWs)   bands (ev):

   -45.5508  -4.1766  -4.1746  -4.1467  -4.1380  -4.1125  -4.1121  -4.0109
    -3.9742  -3.7677  -3.7501  -3.6650  -3.6256  -3.5745  -3.5100  -3.4873
    -3.4771  -3.4476  -3.3958  -3.3760  -3.2919  -3.1687  -3.1345  -3.0554
    -3.0447  -2.8907  -2.8461  -2.7771  -2.6925  -2.6475  -2.6092  -2.5484
    -2.5370  -2.4154  -2.3905  -2.3675  -2.3512  -2.2837  -2.2780  -2.2003
    -2.1895  -2.1204  -2.0760  -1.9848  -1.9348  -1.8619  -1.8166  -1.7556
    -1.7510  -1.6830  -1.6295  -1.6128  -1.5754  -1.4134  -1.3900  -1.3487
    -1.3419  -1.2566  -1.2541  -1.1873  -1.1864  -1.1436  -1.1412  -0.5754
    -0.5402   0.8489   0.9314   1.3128   1.4331   2.4786   2.6897   2.8031
     2.8267   3.8880   4.0470   4.8217   5.0045   5.5024   6.3250   7.0057
     7.2285   7.2678

          k =-0.5000 0.3495 0.0000 ( 30248 PWs)   bands (ev):

   -45.5508  -4.2821  -4.2691  -4.2389  -4.2378  -4.0575  -4.0449  -3.9466
    -3.9433  -3.7388  -3.7148  -3.6585  -3.6300  -3.5938  -3.5793  -3.5207
    -3.4702  -3.4665  -3.4303  -3.4006  -3.3313  -3.2362  -3.1834  -3.1035
    -3.0730  -2.8953  -2.8755  -2.7434  -2.6949  -2.5400  -2.4803  -2.4393
    -2.4263  -2.3473  -2.3393  -2.3167  -2.3066  -2.2773  -2.2181  -2.1892
    -2.1540  -2.1362  -2.1128  -1.9737  -1.9582  -1.7602  -1.6775  -1.6678
    -1.6179  -1.5782  -1.5556  -1.5165  -1.5003  -1.4406  -1.4050  -1.3515
    -1.3479  -1.2551  -1.2451  -1.1763  -1.1734  -0.8109  -0.7970  -0.1762
    -0.1341   0.4006   0.4838   1.1041   1.1974   1.5013   1.7098   2.6015
     2.7940   3.2578   3.3870   4.6252   4.6931   5.1886   6.3993   7.1891
     7.2715   7.4551

          k =-0.5000-0.4660 0.0000 ( 30304 PWs)   bands (ev):

   -45.5508  -4.3214  -4.3107  -4.2875  -4.2816  -4.0005  -3.9735  -3.9527
    -3.9425  -3.7791  -3.7130  -3.6770  -3.6603  -3.6154  -3.6153  -3.5142
    -3.4741  -3.3891  -3.3791  -3.3776  -3.2736  -3.2615  -3.2139  -3.1673
    -3.1336  -2.8445  -2.8089  -2.7552  -2.7394  -2.4828  -2.4452  -2.4368
    -2.4215  -2.3564  -2.3217  -2.2963  -2.2746  -2.2634  -2.2302  -2.1763
    -2.1523  -2.1517  -2.1336  -1.9977  -1.9900  -1.7586  -1.6542  -1.5880
    -1.5614  -1.5602  -1.5368  -1.4546  -1.4373  -1.3978  -1.3669  -1.3348
    -1.3151  -1.2295  -1.2247  -1.2126  -1.2109  -0.3324  -0.3106  -0.2931
    -0.2517   0.4293   0.5212   0.5379   0.6020   1.6225   2.0519   2.0718
     2.0871   3.2456   3.3924   4.4483   4.5112   5.1674   6.5507   7.0800
     7.1214   7.7785

     the Fermi energy is     1.6960 ev

!    total energy              =   -1026.28376089 Ry
     estimated scf accuracy    <          1.9E-09 Ry
     smearing contrib. (-TS)   =      -0.00071332 Ry
     internal energy E=F+TS    =   -1026.28304757 Ry

     The total energy is F=E-TS. E is the sum of the following terms:
     one-electron contribution =  -10705.05670344 Ry
     hartree contribution      =    5445.38691131 Ry
     xc contribution           =    -271.47772668 Ry
     ewald contribution        =    4505.18436575 Ry
     DFT-D3 Dispersion         =      -0.31989451 Ry

     convergence has been achieved in   7 iterations

     negative rho (up, down):  3.935E-05 0.000E+00

     Forces acting on atoms (cartesian axes, Ry/au):

     atom    1 type  2   force =     0.00000021    0.00016737    0.00039072
     atom    2 type  2   force =    -0.00000016   -0.00016157    0.00048190
     atom    3 type  2   force =    -0.00000004   -0.00042927    0.00042328
     atom    4 type  2   force =    -0.00000026    0.00024298   -0.00070750
     atom    5 type  2   force =    -0.00000024    0.00000971   -0.00006455
     atom    6 type  2   force =     0.00000048   -0.00005532   -0.00021095
     atom    7 type  2   force =    -0.00000035   -0.00024163   -0.00003376
     atom    8 type  2   force =     0.00000015    0.00006884    0.00014547
     atom    9 type  2   force =     0.00000009   -0.00058067   -0.00011599
     atom   10 type  2   force =    -0.00000008    0.00072410   -0.00025905
     atom   11 type  2   force =     0.00000008    0.00020822   -0.00013793
     atom   12 type  2   force =    -0.00000005    0.00062509    0.00072964
     atom   13 type  1   force =     0.00000017   -0.00057785   -0.00064128
     The non-local contrib.  to forces
     atom    1 type  2   force =     0.00000033    0.03587874    0.04574850
     atom    2 type  2   force =     0.00000006   -0.00671971    0.04838634
     atom    3 type  2   force =    -0.00000004    0.01737534    0.00200303
     atom    4 type  2   force =    -0.00000036   -0.01410957    0.00608946
     atom    5 type  2   force =    -0.00000027    0.00267660    0.00992463
     atom    6 type  2   force =     0.00000042   -0.00318698    0.01253537
     atom    7 type  2   force =    -0.00000034   -0.00325848   -0.01641209
     atom    8 type  2   force =     0.00000018    0.00111260   -0.01189133
     atom    9 type  2   force =     0.00000009    0.01770969    0.00259894
     atom   10 type  2   force =    -0.00000007   -0.01569350    0.00623166
     atom   11 type  2   force =     0.00000039    0.01097051   -0.13285978
     atom   12 type  2   force =    -0.00000024   -0.03331019   -0.12610684
     atom   13 type  1   force =     0.00000012   -0.00862089    0.06874149
     The ionic contribution  to forces
     atom    1 type  2   force =     0.00001516   11.20967064  111.26444243
     atom    2 type  2   force =    -0.00000912    7.90755372  112.05855585
     atom    3 type  2   force =    -0.00000432    5.15153466   68.35191618
     atom    4 type  2   force =    -0.00000975    6.31216877   73.10601189
     atom    5 type  2   force =    -0.00001421    1.68575509   20.00260219
     atom    6 type  2   force =     0.00002556    1.72508953   20.35870791
     atom    7 type  2   force =    -0.00002201   -2.33745752  -27.10562885
     atom    8 type  2   force =     0.00001877   -2.04819428  -25.39717884
     atom    9 type  2   force =     0.00000427   -6.85490604  -77.31871640
     atom   10 type  2   force =    -0.00000212   -5.85112070  -77.32048885
     atom   11 type  2   force =     0.00001192   -7.80256218 -117.09143705
     atom   12 type  2   force =    -0.00001914  -11.43892777 -116.29065903
     atom   13 type  1   force =     0.00000498    2.34139608   35.38187258
     The local contribution  to forces
     atom    1 type  2   force =    -0.00001527  -11.24475252 -111.30131542
     atom    2 type  2   force =     0.00000893   -7.89917225 -112.09803553
     atom    3 type  2   force =     0.00000435   -5.16873285  -68.34955155
     atom    4 type  2   force =     0.00000984   -6.29725481  -73.10778962
     atom    5 type  2   force =     0.00001422   -1.68865991  -20.00987462
     atom    6 type  2   force =    -0.00002540   -1.72150252  -20.36866706
     atom    7 type  2   force =     0.00002191    2.33947009   27.11865811
     atom    8 type  2   force =    -0.00001877    2.04753973   25.40576234
     atom    9 type  2   force =    -0.00000412    6.83603769   77.30970685
     atom   10 type  2   force =     0.00000199    5.86708133   77.30774539
     atom   11 type  2   force =    -0.00001204    7.79053361  117.21245830
     atom   12 type  2   force =     0.00001905   11.47235411  116.40593822
     atom   13 type  1   force =    -0.00000496   -2.33317444  -35.44939739
     The core correction contribution to forces
     atom    1 type  2   force =    -0.00000003   -0.00135516   -0.00399546
     atom    2 type  2   force =     0.00000004   -0.00069504   -0.00412360
     atom    3 type  2   force =     0.00000000   -0.00009645    0.00113348
     atom    4 type  2   force =     0.00000003    0.00012149   -0.00088417
     atom    5 type  2   force =     0.00000002    0.00023519   -0.00039981
     atom    6 type  2   force =    -0.00000005   -0.00020095   -0.00040643
     atom    7 type  2   force =     0.00000004    0.00048864    0.00037806
     atom    8 type  2   force =    -0.00000003   -0.00039482    0.00039581
     atom    9 type  2   force =    -0.00000001    0.00010590    0.00161497
     atom   10 type  2   force =     0.00000000    0.00013289    0.00157212
     atom   11 type  2   force =    -0.00000001   -0.00062071    0.00727001
     atom   12 type  2   force =     0.00000004    0.00168312    0.00685642
     atom   13 type  1   force =     0.00000000    0.00000000    0.00000000
     The Hubbard contrib.    to forces
     atom    1 type  2   force =     0.00000000    0.00000000    0.00000000
     atom    2 type  2   force =     0.00000000    0.00000000    0.00000000
     atom    3 type  2   force =     0.00000000    0.00000000    0.00000000
     atom    4 type  2   force =     0.00000000    0.00000000    0.00000000
     atom    5 type  2   force =     0.00000000    0.00000000    0.00000000
     atom    6 type  2   force =     0.00000000    0.00000000    0.00000000
     atom    7 type  2   force =     0.00000000    0.00000000    0.00000000
     atom    8 type  2   force =     0.00000000    0.00000000    0.00000000
     atom    9 type  2   force =     0.00000000    0.00000000    0.00000000
     atom   10 type  2   force =     0.00000000    0.00000000    0.00000000
     atom   11 type  2   force =     0.00000000    0.00000000    0.00000000
     atom   12 type  2   force =     0.00000000    0.00000000    0.00000000
     atom   13 type  1   force =     0.00000000    0.00000000    0.00000000
     The SCF correction term to forces
     atom    1 type  2   force =     0.00000001    0.00001442   -0.00002918
     atom    2 type  2   force =    -0.00000008   -0.00000803   -0.00002039
     atom    3 type  2   force =    -0.00000005   -0.00000565   -0.00001753
     atom    4 type  2   force =    -0.00000004   -0.00000027   -0.00004449
     atom    5 type  2   force =    -0.00000001    0.00002375    0.00001263
     atom    6 type  2   force =    -0.00000004   -0.00000974   -0.00001537
     atom    7 type  2   force =     0.00000002   -0.00000551    0.00000886
     atom    8 type  2   force =     0.00000000   -0.00000228    0.00000697
     atom    9 type  2   force =    -0.00000016   -0.00000029    0.00003807
     atom   10 type  2   force =     0.00000009    0.00001425    0.00005138
     atom   11 type  2   force =    -0.00000019   -0.00001500   -0.00003337
     atom   12 type  2   force =     0.00000020    0.00003376    0.00002664
     atom   13 type  1   force =     0.00000002   -0.00000667    0.00000034

     DFT-D3 dispersion contribution to forces:
     atom    1 type  2   force =    -0.00000001    0.00071342   -0.00445835
     atom    2 type  2   force =    -0.00000000   -0.00111808   -0.00427897
     atom    3 type  2   force =     0.00000000   -0.00050214   -0.00505853
     atom    4 type  2   force =    -0.00000000   -0.00068045   -0.00408875
     atom    5 type  2   force =     0.00000001   -0.00001883   -0.00232777
     atom    6 type  2   force =    -0.00000002   -0.00024251   -0.00236357
     atom    7 type  2   force =     0.00000002    0.00052333    0.00296394
     atom    8 type  2   force =    -0.00000002    0.00001006    0.00305232
     atom    9 type  2   force =     0.00000000    0.00047456    0.00464337
     atom   10 type  2   force =     0.00000001    0.00031201    0.00463104
     atom   11 type  2   force =    -0.00000000    0.00190416    0.00446576
     atom   12 type  2   force =     0.00000002   -0.00120576    0.00467602
     atom   13 type  1   force =     0.00000000   -0.00016976   -0.00185651

     Total force =     0.002043     Total SCF correction =     0.000112


     Computing stress (Cartesian axis) and pressure


     negative rho (up, down):  3.935E-05 0.000E+00
          total   stress  (Ry/bohr**3)                   (kbar)     P=      -11.19
  -0.00007973  -0.00000000   0.00000000          -11.73       -0.00        0.00
  -0.00000000  -0.00010273   0.00000207           -0.00      -15.11        0.30
   0.00000000   0.00000207  -0.00004578            0.00        0.30       -6.73

     Energy error            =      1.8E-05 Ry
     Gradient error          =      7.3E-04 Ry/Bohr

     bfgs converged in  25 scf cycles and  24 bfgs steps
     (criteria: energy <  1.0E-04 Ry, force <  1.0E-03 Ry/Bohr)

     End of BFGS Geometry Optimization

     Final energy             =   -1026.2837608858 Ry

     File ./Ag_mp-10597_110_hollow_0/Ag_mp-10597_110_hollow_0.bfgs deleted, as requested
Begin final coordinates

ATOMIC_POSITIONS (angstrom)
Ag            1.1754119056        1.0418495917       17.3201996751
Ag            3.5262431897        4.4994771777       17.0590057261
Ag            1.1754136642        3.4937535425       15.6790085416
Ag            3.5262451057        1.8737238842       15.9460101598
Ag            1.1754151833        0.9028906160       14.4379340758
Ag            3.5262445511        4.2589272614       14.1714879315
Ag            1.1754171736        3.3253967699       12.8054388392
Ag            3.5262463443        1.6179913754       12.9946516201
Ag            1.1754180189        0.6658164446       11.5282075711
Ag            3.5262491565        4.0334595310       11.2522188178
Ag            1.1754184747        3.0728885636        9.9628442396
Ag            3.5262511878        1.4023210649       10.1189336536
Li            1.1754075533        3.6147079863       18.3459758698
End final coordinates



     Writing all to output data dir ./Ag_mp-10597_110_hollow_0/Ag_mp-10597_110_hollow_0.save/

     init_run     :      3.38s CPU      3.98s WALL (       1 calls)
     electrons    :    317.73s CPU    351.10s WALL (      25 calls)
     update_pot   :     17.13s CPU     17.78s WALL (      24 calls)
     forces       :     16.56s CPU     18.30s WALL (      25 calls)
     force_dftd3  :      0.56s CPU      1.02s WALL (      25 calls)
     stress       :     74.82s CPU     76.68s WALL (      25 calls)
     stres_dftd3  :      0.34s CPU      0.56s WALL (      25 calls)

     Called by init_run:
     wfcinit      :      0.62s CPU      0.95s WALL (       1 calls)
     potinit      :      0.77s CPU      0.81s WALL (       1 calls)
     hinit0       :      1.78s CPU      1.95s WALL (       1 calls)

     Called by electrons:
     c_bands      :    280.94s CPU    306.94s WALL (     203 calls)
     sum_band     :     30.20s CPU     33.03s WALL (     203 calls)
     v_of_rho     :      2.77s CPU      3.63s WALL (     211 calls)
     newd         :      2.91s CPU      3.16s WALL (     211 calls)
     mix_rho      :      0.34s CPU      0.36s WALL (     203 calls)
     energy_dftd3 :      0.05s CPU      0.05s WALL (      25 calls)

     Called by c_bands:
     init_us_2    :      1.39s CPU      1.48s WALL (    4113 calls)
     init_us_2:cp :      1.38s CPU      1.47s WALL (    4113 calls)
     cegterg      :    261.85s CPU    274.90s WALL (    1827 calls)

     Called by *egterg:
     cdiaghg      :     73.83s CPU     74.30s WALL (    8571 calls)
     h_psi        :    137.94s CPU    147.64s WALL (    8949 calls)
     s_psi        :     10.68s CPU     10.78s WALL (    8949 calls)
     g_psi        :      0.49s CPU      0.50s WALL (    7113 calls)

     Called by h_psi:
     h_psi:calbec :     17.60s CPU     19.98s WALL (    8949 calls)
     vloc_psi     :    108.28s CPU    115.43s WALL (    8949 calls)
     add_vuspsi   :     11.35s CPU     11.50s WALL (    8949 calls)

     General routines
     calbec       :     27.09s CPU     30.49s WALL (   11901 calls)
     fft          :      5.53s CPU      7.10s WALL (    3359 calls)
     ffts         :      0.61s CPU      1.07s WALL (     414 calls)
     fftw         :    115.13s CPU    122.60s WALL (  975452 calls)
     interpolate  :      0.68s CPU      1.07s WALL (     211 calls)

     Parallel routines

     PWSCF        :   7m11.12s CPU   7m51.05s WALL


   This run was terminated on:  11:25:30  25Jul2025            

=------------------------------------------------------------------------------=
   JOB DONE.
=------------------------------------------------------------------------------=
